LAMMPS Description. time=0 
 
      10000  atoms 
          2  atom types 
 
        0.00000      1206.99900 xlo xhi 
        0.00000      1206.99900 ylo yhi 
        0.00000      1206.99900 zlo zhi 
 
Atoms 
 
     1     1       292.94100       620.12100       610.44400 
     2     1       402.40100       641.40500       606.05600 
     3     1       439.04100       652.98200       609.26400 
     4     1      1143.93000       691.60000       607.48800 
     5     1       870.42500       707.48800       603.58500 
     6     1       364.10100       760.17000       610.51900 
     7     1       418.44100       759.25500       605.60600 
     8     1      1134.08000       764.89700       610.93400 
     9     1       989.32200       799.92600       609.45800 
    10     1       700.80300       906.16900       605.96800 
    11     1      1140.26000       930.60100       605.11800 
    12     1       993.15400      1077.28000       610.67100 
    13     1      1124.01000      1080.96000       605.09700 
    14     1       992.63500      1089.76000       605.71900 
    15     1       872.01600      1109.74000       610.48500 
    16     1       226.45100      1141.33000       609.92300 
    17     1       852.21800        27.19100       608.66800 
    18     1       609.63800       113.78100       603.75500 
    19     1       390.60100       162.73100       610.54000 
    20     1       968.69700       176.46100       607.05100 
    21     1        36.49100       239.34100       606.59100 
    22     1        34.98100       294.70100       610.56200 
    23     1       267.81100       329.08100       608.05900 
    24     1       613.94200       376.62100       609.09200 
    25     1       137.46100       405.19100       603.50200 
    26     1       616.99800       472.19100       609.23300 
    27     1      1092.89000       494.11100       610.51200 
    28     1        18.27100       594.92100       608.39500 
    29     1       731.02500       599.08100       604.96100 
    30     1       674.90000       642.29700       612.74200 
    31     1        55.65100       646.73600       617.06900 
    32     1       678.81400       675.52900       616.36100 
    33     1      1162.79000       747.92000       614.97800 
    34     1      1137.71000       754.45200       616.31900 
    35     1        57.18100       753.64100       614.57400 
    36     1       615.21800       783.09900       618.99800 
    37     1       875.71500       931.61500       612.16000 
    38     1       873.89400       984.20900       613.06000 
    39     1      1033.88000      1078.50000       614.97100 
    40     1       256.82100      1078.56000       615.79200 
    41     1      1181.16000      1108.88000       611.90000 
    42     1       225.42100      1125.47000       611.56800 
    43     1       619.58900      1147.07000       615.27100 
    44     1       636.87700         5.08100       617.59000 
    45     1        33.72100       108.77100       619.22300 
    46     1       118.02100       137.12100       618.05800 
    47     1       829.25600       192.42100       614.37200 
    48     1        93.80100       190.56100       612.54000 
    49     1        82.33100       233.34100       618.63000 
    50     1       134.40100       225.44100       612.93500 
    51     1       461.45100       232.35100       615.49400 
    52     1      1078.79000       233.39100       616.85300 
    53     1       298.12100       265.95100       615.01300 
    54     1       748.93900       304.28100       614.98900 
    55     1       299.36100       328.15100       616.97200 
    56     1      1032.59000       363.30100       614.07500 
    57     1       143.47100       411.63100       615.53800 
    58     1       390.01100       424.24100       612.28100 
    59     1      1156.02000       462.98100       617.05700 
    60     1       523.95100       480.28100       616.68500 
    61     1      1180.72000       514.43100       614.89100 
    62     1       987.77600       538.64100       618.17400 
    63     1       437.77100       568.51100       616.05600 
    64     1       682.67900       577.39100       612.09300 
    65     1       630.81400       613.35600       624.33700 
    66     1       278.61100       621.05100       621.53700 
    67     1       560.82100       621.09700       625.00700 
    68     1       865.96600       669.81700       627.26600 
    69     1       300.14100       677.04200       623.68700 
    70     1        35.80100       685.96000       625.54100 
    71     1       535.43100       695.42800       621.77800 
    72     1       192.58100       822.16400       624.49000 
    73     1      1030.58000       842.19400       619.95200 
    74     1       107.63100       855.59600       625.82300 
    75     1      1032.30000       939.64300       620.67900 
    76     1      1113.10000       956.94200       621.30200 
    77     1      1192.38000       989.40800       624.52000 
    78     1       164.82100      1020.23000       622.95400 
    79     1       610.55900      1044.17000       623.36600 
    80     1         8.91100      1166.84000       620.17000 
    81     1       611.88100        10.10100       625.49200 
    82     1       490.78100        15.89100       620.58700 
    83     1      1044.17000        83.71100       627.58800 
    84     1      1054.02000        96.86100       626.42000 
    85     1       959.58600       121.88100       620.37000 
    86     1       435.49100       143.76100       620.62100 
    87     1      1042.23000       202.08100       619.80700 
    88     1       329.53100       228.77100       625.42500 
    89     1      1100.51000       238.48100       625.45200 
    90     1       622.17900       258.01100       626.17300 
    91     1        29.02100       285.75100       619.96100 
    92     1       964.00100       323.76100       622.70600 
    93     1      1079.90000       325.07100       621.42800 
    94     1       408.74100       341.01100       623.27400 
    95     1        12.76100       394.36100       625.75700 
    96     1        31.53100       545.18100       626.88400 
    97     1       807.45400       602.73100       620.34000 
    98     1       655.99600       613.30700       630.75100 
    99     1       797.57000       617.44600       633.71600 
   100     1       399.56100       641.06000       635.63700 
   101     1       305.66100       654.67000       629.13800 
   102     1      1173.47000       664.66300       634.94500 
   103     1        87.03100       732.97900       631.23700 
   104     1       579.60100       753.50100       628.32900 
   105     1       875.46200       816.07200       633.84200 
   106     1       834.54800       823.95500       627.80200 
   107     1       961.21600       834.58400       633.48900 
   108     1       984.93300       831.36400       634.50200 
   109     1       702.35000       840.78600       631.49500 
   110     1       558.41100       892.30600       627.67700 
   111     1       772.32600       961.79400       632.17800 
   112     1       288.79100      1010.03000       628.56200 
   113     1       373.35100      1094.55000       630.34000 
   114     1       360.08100         3.80100       628.66000 
   115     1      1197.68000       105.21100       633.48300 
   116     1       429.59100       117.14100       630.63300 
   117     1       864.27900       146.42100       630.59400 
   118     1       935.42400       296.95100       635.51700 
   119     1       418.26100       309.31100       629.79800 
   120     1      1025.61000       375.81100       635.28600 
   121     1      1152.98000       423.62100       635.54800 
   122     1      1019.95000       469.79100       633.06400 
   123     1       344.86100       569.34100       632.34300 
   124     1       493.81100       596.52100       631.67200 
   125     1      1077.87000       609.38600       640.48600 
   126     1       965.98400       656.20000       641.40700 
   127     1       741.38200       679.20400       637.77900 
   128     1      1061.74000       677.17600       638.13400 
   129     1       616.97500       687.27800       640.69000 
   130     1       255.26100       702.34100       641.53800 
   131     1       593.17100       709.52900       641.62200 
   132     1       898.51200       718.39200       639.99500 
   133     1       308.66100       734.00800       641.36600 
   134     1       369.01100       733.03700       641.96900 
   135     1       616.98800       745.14200       642.61400 
   136     1       914.75900       763.86800       640.01000 
   137     1       454.94100       817.95300       637.79500 
   138     1       151.85100       821.97900       639.01600 
   139     1      1000.71000       883.46900       636.53400 
   140     1        36.85100       888.30700       639.15400 
   141     1       885.06000       909.06000       643.46400 
   142     1       528.24100       915.54700       636.83500 
   143     1       579.55100      1001.23000       636.67200 
   144     1        76.77100      1061.45000       640.97400 
   145     1       677.95000      1103.22000       640.00700 
   146     1       154.51100      1206.10000       643.26600 
   147     1        42.55100        22.97100       640.09200 
   148     1       438.59100        78.02100       639.14900 
   149     1       743.79100       124.11100       642.71900 
   150     1       760.38400       130.09100       635.80000 
   151     1       891.43200       131.81100       636.47300 
   152     1      1051.62000       130.09100       640.82900 
   153     1       569.08100       148.81100       643.03700 
   154     1      1154.55000       167.43100       642.80300 
   155     1       450.19100       298.26100       642.67600 
   156     1       930.55900       496.84100       642.07100 
   157     1       312.69100       528.96100       640.19700 
   158     1       407.08100       551.64100       639.55100 
   159     1       314.78100       601.03100       643.09400 
   160     1       271.31100       605.63900       644.44800 
   161     1       242.18100       617.66500       644.77700 
   162     1       879.58100       639.38400       645.27600 
   163     1        39.81100       645.23500       645.33700 
   164     1       886.17200       668.93500       650.06000 
   165     1      1056.34000       793.50200       651.44300 
   166     1       282.25100       793.45100       647.44500 
   167     1       479.63100       816.74200       651.58600 
   168     1      1155.13000       842.16200       644.98300 
   169     1      1060.20000       901.57100       644.42800 
   170     1        92.05100       925.40600       645.53000 
   171     1       751.80300      1025.29000       648.23400 
   172     1       406.48100      1060.09000       649.49800 
   173     1       514.02100      1070.83000       645.20400 
   174     1       368.60100      1100.51000       645.89900 
   175     1       512.68100      1097.46000       644.79200 
   176     1       927.52500      1151.42000       644.61900 
   177     1       213.49100      1175.49000       644.00200 
   178     1       240.28100      1206.84000       645.08000 
   179     1       319.73100        15.41100       648.44900 
   180     1       147.33100        16.26100       645.79600 
   181     1       158.49100        62.92100       650.83100 
   182     1       997.16300        67.80100       648.71200 
   183     1      1029.85000        95.74100       647.31000 
   184     1       338.79100       149.94100       647.17200 
   185     1       970.63700       187.86100       644.97800 
   186     1      1008.31000       217.14100       649.87200 
   187     1       579.38100       310.17100       645.68300 
   188     1      1202.78000       345.80100       649.56000 
   189     1       737.72700       371.47100       645.87100 
   190     1       892.75000       372.50100       651.25000 
   191     1       471.93100       370.71100       650.65600 
   192     1       272.71100       383.04100       651.60300 
   193     1       117.99100       393.63100       648.82200 
   194     1       132.07100       478.64100       646.33400 
   195     1       265.12100       481.03100       644.75700 
   196     1        55.37100       484.42100       650.07900 
   197     1       380.26100       497.01100       651.22600 
   198     1       822.86500       538.21100       650.93900 
   199     1       614.20700       590.65100       644.64100 
   200     1       811.69700       714.72900       655.73800 
   201     1      1004.38000       709.46700       651.99800 
   202     1      1040.10000       745.32300       653.51000 
   203     1       218.20100       772.91100       658.19100 
   204     1       211.85100       792.99300       657.64400 
   205     1       493.54100       795.09300       657.54800 
   206     1         8.78100       882.09300       652.53400 
   207     1       883.99700       896.31200       657.57000 
   208     1       340.40100       922.24500       655.06900 
   209     1       734.38900       949.82900       653.95300 
   210     1      1022.12000       981.06800       652.85800 
   211     1       310.21100      1008.09000       654.60300 
   212     1      1063.86000      1032.07000       653.60100 
   213     1       896.09200      1059.00000       658.70100 
   214     1      1056.56000      1192.32000       655.73800 
   215     1      1091.84000      1196.02000       659.47800 
   216     1        22.44100       141.90100       657.96700 
   217     1       550.72100       174.06100       653.94000 
   218     1       100.28100       260.66100       658.35100 
   219     1       552.02100       306.65100       656.82100 
   220     1      1021.52000       379.82100       658.02200 
   221     1       110.64100       475.60100       657.35800 
   222     1       562.15100       595.89100       655.92700 
   223     1       723.40200       646.26100       660.74500 
   224     1       907.81500       676.56200       667.85200 
   225     1       774.54200       719.97700       660.36900 
   226     1        14.42100       746.66300       667.00200 
   227     1       829.49300       881.04300       664.49600 
   228     1      1003.72000       912.20400       665.17700 
   229     1       789.11100       930.76000       666.69700 
   230     1      1138.49000       941.21700       665.16200 
   231     1       224.97100       934.94600       659.84700 
   232     1       346.17100       988.69700       660.19800 
   233     1       742.22400       994.20700       664.77900 
   234     1      1076.28000      1001.88000       662.79700 
   235     1       832.64200      1077.09000       665.17900 
   236     1       580.61100      1077.02000       664.78100 
   237     1        24.60100      1111.21000       662.94100 
   238     1        78.30100      1174.94000       659.94100 
   239     1       596.87100      1201.75000       664.01000 
   240     1        18.10100         3.25100       661.97500 
   241     1       949.86500        29.09100       660.63300 
   242     1       510.85100        45.87100       666.12600 
   243     1       839.66600        93.95100       660.82900 
   244     1       490.07100        95.89100       661.07500 
   245     1      1190.75000       154.81100       660.42600 
   246     1       582.82100       173.73100       661.78700 
   247     1        91.16100       191.43100       660.24700 
   248     1       840.76800       211.65100       666.21900 
   249     1       303.28100       285.94100       667.44400 
   250     1       102.35100       317.01100       667.45100 
   251     1       731.11900       394.66100       662.73800 
   252     1       953.25600       414.47100       666.26400 
   253     1      1195.08000       451.58100       661.50800 
   254     1       497.39100       643.62200       675.55700 
   255     1        95.08100       657.85300       671.61900 
   256     1       607.31200       749.55300       673.55500 
   257     1        95.88100       799.79100       674.07600 
   258     1       522.72100       848.69500       669.05700 
   259     1         0.08100       908.92500       672.09600 
   260     1       626.72700       933.24800       670.51400 
   261     1      1111.02000       950.59600       670.56600 
   262     1      1052.11000      1051.99000       674.62600 
   263     1        88.42100      1179.65000       670.96200 
   264     1       479.02100        35.37100       668.16800 
   265     1       229.68100       191.94100       668.35600 
   266     1       500.04100       200.02100       675.55700 
   267     1       188.43100       213.80100       675.59000 
   268     1      1089.86000       359.85100       675.07900 
   269     1      1190.77000       367.87100       671.02300 
   270     1      1176.84000       411.54100       670.58000 
   271     1       357.44100       447.80100       668.30400 
   272     1       890.37900       479.61100       668.52200 
   273     1       230.55100       527.26100       668.37600 
   274     1       746.87400       636.58300       678.53900 
   275     1       381.48100       715.25500       676.88400 
   276     1       353.98100       755.81400       680.00800 
   277     1       817.59600       779.77400       681.89400 
   278     1       993.13700       774.79500       682.54700 
   279     1       939.04200       796.41000       682.36400 
   280     1       460.74100       814.59000       683.53400 
   281     1       827.06500       843.76900       681.03400 
   282     1       979.58800       858.92300       677.05300 
   283     1       836.21900       865.47000       679.52900 
   284     1      1073.56000       868.68200       675.95100 
   285     1       185.74100       874.28400       681.23500 
   286     1       860.10700       887.15900       681.76400 
   287     1       633.76100       980.85700       680.71900 
   288     1       263.97100       973.65300       680.54500 
   289     1       274.82100      1023.40000       676.18100 
   290     1       105.94100      1059.57000       676.94300 
   291     1       373.22100      1143.33000       676.09400 
   292     1       755.58700      1165.50000       683.94700 
   293     1        84.83100      1159.55000       683.53000 
   294     1      1120.78000        36.23100       679.97400 
   295     1       706.82300        72.10100       682.83500 
   296     1      1110.98000        93.79100       678.35700 
   297     1      1128.57000       103.40100       682.42000 
   298     1       905.18800       141.62100       678.55900 
   299     1       433.85100       184.80100       676.76800 
   300     1        76.81100       188.34100       683.59200 
   301     1       364.24100       218.54100       679.61300 
   302     1       247.06100       262.53100       678.34400 
   303     1       709.21600       339.20100       677.68900 
   304     1       115.15100       340.46100       683.22400 
   305     1       966.10800       446.72100       679.33300 
   306     1       677.61600       455.01100       677.30300 
   307     1      1091.09000       454.88100       683.13000 
   308     1        70.17100       490.69100       681.25700 
   309     1       969.41200       505.89100       679.34300 
   310     1       226.54100       536.58100       676.13800 
   311     1       808.41700       586.60100       683.08800 
   312     1       450.21100       741.69400       690.11300 
   313     1       121.67100       819.31100       687.34900 
   314     1       812.13800       841.94900       684.97000 
   315     1       100.39100       840.60300       684.66200 
   316     1      1080.65000       926.77600       687.83400 
   317     1       645.67800      1003.46000       688.81300 
   318     1       428.18100      1045.02000       688.80200 
   319     1      1048.56000      1053.68000       690.58200 
   320     1       190.42100      1101.98000       684.88100 
   321     1       415.01100      1117.82000       689.08800 
   322     1       824.90800      1122.45000       684.31500 
   323     1       961.58900      1123.52000       685.19500 
   324     1       764.24800      1136.51000       684.34800 
   325     1      1179.93000         6.66100       684.31600 
   326     1       187.16100         6.25100       691.39000 
   327     1        93.04100        16.60100       688.75400 
   328     1       877.29300        28.54100       686.63900 
   329     1      1140.75000        31.10100       690.23100 
   330     1       959.35600        48.03100       690.45300 
   331     1       783.58400        63.90100       689.72900 
   332     1       967.53300        84.47100       685.98700 
   333     1       400.88100       105.99100       689.93300 
   334     1       939.05600       117.62100       688.09900 
   335     1       718.97000       205.85100       688.75900 
   336     1       421.34100       256.09100       688.60200 
   337     1       287.66100       284.47100       685.58000 
   338     1       223.74100       343.25100       690.50900 
   339     1        20.96100       355.93100       689.18200 
   340     1        89.95100       369.09100       686.85800 
   341     1       703.18200       402.69100       687.22700 
   342     1       599.72100       422.81100       685.57600 
   343     1       147.52100       472.08100       685.89000 
   344     1       311.49100       497.99100       686.63300 
   345     1       753.30500       541.97100       686.97200 
   346     1       958.68900       590.59100       685.91500 
   347     1        10.66100       607.12300       696.54700 
   348     1       211.59100       626.32100       697.59400 
   349     1       643.12200       647.91000       693.39500 
   350     1      1074.58000       652.23100       696.45000 
   351     1      1174.80000       673.95500       692.21700 
   352     1      1090.23000       731.26900       693.40000 
   353     1      1117.30000       747.85800       695.39500 
   354     1       137.24100       744.65200       695.27300 
   355     1       829.41200       822.63300       695.75500 
   356     1       219.31100       841.17200       696.74000 
   357     1       849.80000       855.96900       698.52300 
   358     1       234.48100       954.12900       696.79100 
   359     1        11.88100      1059.74000       697.72200 
   360     1       355.32100      1077.38000       698.22300 
   361     1       796.64100      1137.71000       694.03300 
   362     1      1123.26000      1143.26000       697.05400 
   363     1       516.75100      1142.69000       696.29000 
   364     1        89.56100      1164.80000       692.75900 
   365     1       973.51000      1186.99000       698.53500 
   366     1         0.64100        64.75100       698.22000 
   367     1       658.15700       120.02100       695.84600 
   368     1       256.29100       210.62100       692.74000 
   369     1      1069.21000       303.25100       699.06000 
   370     1       544.64100       321.65100       696.22900 
   371     1       110.03100       399.83100       699.79600 
   372     1       661.94900       402.55100       695.86800 
   373     1       593.61100       415.21100       699.33300 
   374     1       217.60100       460.52100       692.09600 
   375     1       620.55800       472.02100       694.78600 
   376     1       208.40100       513.02100       696.69700 
   377     1       601.84100       514.02100       692.80500 
   378     1       897.51900       544.94100       693.53600 
   379     1       372.49100       553.10100       698.62300 
   380     1       970.47600       588.73100       699.03600 
   381     1        26.78100       589.84100       692.25700 
   382     1       924.18100       641.89600       705.52700 
   383     1       663.29900       681.46700       701.21800 
   384     1      1029.93000       688.22400       707.63800 
   385     1       712.87700       860.94400       704.27000 
   386     1       200.62100       867.62300       705.16700 
   387     1       470.98100       929.51400       700.58400 
   388     1       643.77900       995.96600       705.71800 
   389     1       864.04200      1161.06000       703.79500 
   390     1       112.53100        38.15100       707.03600 
   391     1       217.53100        57.40100       707.51100 
   392     1       479.11100        63.94100       700.87800 
   393     1       623.42300        74.51100       703.79000 
   394     1       560.02100        98.97100       701.54100 
   395     1      1142.44000       230.76100       706.85900 
   396     1       275.66100       236.89100       707.85100 
   397     1       230.96100       267.46100       701.59600 
   398     1       552.81100       328.65100       705.13700 
   399     1      1189.79000       350.69100       707.56900 
   400     1       626.13400       413.35100       706.64500 
   401     1       491.28100       441.41100       702.08200 
   402     1       987.81600       457.76100       702.51600 
   403     1       400.11100       456.97100       706.04100 
   404     1      1196.25000       552.12100       702.96600 
   405     1       809.50100       669.95400       715.25300 
   406     1      1158.45000       706.50700       708.61400 
   407     1       978.89000       725.81100       712.90000 
   408     1        83.80100       771.18800       709.14200 
   409     1       284.59100       773.42900       715.58900 
   410     1       969.86500       789.80400       708.65100 
   411     1       943.02700       824.11400       713.82000 
   412     1       459.50100       825.22000       713.46500 
   413     1       733.65800       898.70500       710.87800 
   414     1       352.62100       940.49600       714.44500 
   415     1       565.49100       970.02800       712.93700 
   416     1       721.24600      1036.66000       715.84800 
   417     1       893.63100      1077.76000       709.38300 
   418     1       401.60100      1070.66000       709.37500 
   419     1       382.53100      1116.91000       709.63700 
   420     1       576.66100      1124.56000       710.95400 
   421     1      1111.65000      1142.37000       714.66400 
   422     1       296.29100      1140.01000       711.21000 
   423     1       197.19100      1170.49000       713.78500 
   424     1      1185.94000      1193.37000       715.95500 
   425     1       323.69100      1197.09000       714.25100 
   426     1       770.03500         9.26100       715.03400 
   427     1       967.27200        26.06100       711.60400 
   428     1       922.56200       183.90100       708.95200 
   429     1      1060.82000       260.91100       710.86600 
   430     1        67.55100       272.81100       711.67900 
   431     1       517.50100       342.59100       712.79600 
   432     1       271.24100       370.17100       714.49800 
   433     1       146.11100       428.20100       715.47900 
   434     1       457.89100       482.36100       713.68100 
   435     1       574.06100       526.16100       714.17700 
   436     1       979.84900       543.17100       712.95200 
   437     1       801.88100       594.89100       713.80500 
   438     1       661.13900       633.97500       720.67800 
   439     1       115.04100       723.25500       723.65800 
   440     1       350.38100       729.18600       717.56400 
   441     1       205.02100       738.55800       718.34700 
   442     1       439.52100       776.19600       720.40800 
   443     1       979.63900       800.59600       722.52300 
   444     1       400.46100       804.93400       722.65200 
   445     1       469.98100       823.59300       719.45800 
   446     1       165.59100       869.29200       722.18600 
   447     1       834.20500       958.78600       721.06200 
   448     1      1040.08000      1071.83000       722.85600 
   449     1       937.08000      1100.86000       721.36400 
   450     1       140.55100      1139.54000       721.46700 
   451     1       962.21500      1174.19000       722.24900 
   452     1      1194.34000      1179.14000       720.74900 
   453     1       398.18100      1184.06000       723.89600 
   454     1        71.08100      1195.49000       722.37700 
   455     1       750.26800        58.42100       716.91600 
   456     1       820.79900        77.26100       716.68500 
   457     1       546.80100       146.07100       722.64700 
   458     1       910.96100       176.79100       717.92500 
   459     1       446.52100       184.64100       721.13200 
   460     1      1149.71000       199.98100       717.55100 
   461     1      1153.52000       235.43100       716.23700 
   462     1       706.46900       392.50100       721.22000 
   463     1       739.95700       402.91100       724.13100 
   464     1       673.78100       451.51100       721.63500 
   465     1       712.23200       564.15100       722.67100 
   466     1       542.17100       566.12100       717.36600 
   467     1       466.29100       791.27800       727.42700 
   468     1       239.73100       832.41900       729.86500 
   469     1      1067.49000       838.92200       726.44000 
   470     1       489.31100       840.36200       726.61700 
   471     1       446.71100       850.93400       727.40300 
   472     1       465.00100       878.67500       727.10200 