LAMMPS Description. time=0 
 
      10000  atoms 
          2  atom types 
 
        0.00000      1206.99900 xlo xhi 
        0.00000      1206.99900 ylo yhi 
        0.00000      1206.99900 zlo zhi 
 
Atoms 
 
     1     1      1018.36000       660.86500       610.31600 
     2     1      1118.58000       682.58800       606.08300 
     3     1       243.95100       713.78200       606.41700 
     4     1      1034.01000       739.90200       607.26600 
     5     1      1045.02000       744.27700       610.50900 
     6     1        17.01100       838.15700       603.91700 
     7     1       887.76900       910.87500       605.96600 
     8     1       431.20100       938.16900       608.40500 
     9     1       178.37100       962.77600       609.93700 
    10     1      1082.58000      1053.33000       611.47300 
    11     1       850.88000      1097.62000       610.38600 
    12     1       614.41000      1180.07000       610.63200 
    13     1       903.14300        56.66100       604.31900 
    14     1        61.83100        64.01100       607.32600 
    15     1      1152.42000        72.98100       610.91200 
    16     1       344.66100       114.59100       603.81200 
    17     1       548.37100       131.70100       611.53100 
    18     1       732.17700       229.83100       609.89300 
    19     1       358.31100       234.69100       606.54700 
    20     1       624.75900       406.64100       610.87800 
    21     1       670.51100       445.73100       607.95500 
    22     1       142.60100       473.62100       605.39300 
    23     1       650.62800       477.23100       607.37300 
    24     1       344.98100       507.31100       606.75800 
    25     1       545.63100       522.65100       606.67100 
    26     1       554.96100       526.79100       606.44500 
    27     1       582.93100       531.60100       607.48400 
    28     1       338.27100       623.84300       619.14800 
    29     1       334.33100       633.91900       618.78500 
    30     1      1117.96000       652.62800       617.97200 
    31     1       607.08500       690.10000       615.08400 
    32     1      1002.67000       749.08300       611.73100 
    33     1      1001.83000       818.77100       614.62700 
    34     1       122.26100       840.95600       613.22000 
    35     1       945.98600       845.73000       614.09300 
    36     1       656.66400       869.57700       618.13600 
    37     1       194.60100       947.78600       616.97400 
    38     1       384.40100       977.68800       619.14200 
    39     1       275.78100       987.56900       616.03800 
    40     1      1076.65000      1058.66000       615.72900 
    41     1      1068.55000      1069.67000       612.56100 
    42     1      1185.76000      1081.01000       618.67900 
    43     1        55.65100      1121.45000       618.18000 
    44     1       265.89100      1148.55000       617.07300 
    45     1        64.62100      1195.48000       613.80200 
    46     1       910.20600      1203.86000       614.73600 
    47     1       174.43100        17.35100       618.88500 
    48     1         0.34100        28.91100       611.95100 
    49     1       422.90100        72.57100       614.74400 
    50     1       441.87100        88.49100       619.07600 
    51     1      1140.74000        91.42100       619.13800 
    52     1       491.71100       129.28100       616.68300 
    53     1       755.67700       140.05100       612.45300 
    54     1       773.83700       217.19100       619.25400 
    55     1       500.36100       272.72100       615.16900 
    56     1       925.33500       298.18100       612.00500 
    57     1       681.29700       317.91100       619.52100 
    58     1      1125.57000       332.11100       614.16900 
    59     1       496.60100       337.28100       619.00300 
    60     1       378.95100       366.46100       617.55900 
    61     1        53.81100       408.47100       613.66200 
    62     1      1064.06000       467.17100       616.62400 
    63     1       435.74100       467.57100       619.29000 
    64     1       206.32100       476.21100       611.89300 
    65     1       893.10200       529.31100       616.36500 
    66     1       945.47600       558.29100       612.31100 
    67     1       949.71200       606.86700       624.16100 
    68     1      1102.24000       715.14000       622.48000 
    69     1       775.13300       734.28400       625.19300 
    70     1       360.63100       756.09400       625.13900 
    71     1       470.46100       761.90600       625.37800 
    72     1       608.16400       778.53900       619.90700 
    73     1      1149.66000       826.06000       627.56700 
    74     1       403.39100       833.42100       626.89000 
    75     1       180.86100       874.92700       621.26700 
    76     1       701.28200       930.63400       619.65700 
    77     1       840.49300       958.30500       626.14900 
    78     1       703.15500       974.32700       627.12000 
    79     1       503.71100       995.63300       619.94600 
    80     1       668.35900      1054.88000       623.70000 
    81     1       269.84100      1075.54000       623.16000 
    82     1       326.32100      1125.55000       623.50300 
    83     1       666.19700        67.84100       624.21300 
    84     1       159.18100        65.82100       622.18500 
    85     1       882.27600        92.15100       626.63700 
    86     1       764.38700       106.55100       620.87400 
    87     1       375.18100       129.57100       625.55400 
    88     1      1193.66000       331.58100       626.80700 
    89     1       462.72100       349.87100       626.69200 
    90     1      1058.80000       361.37100       623.96100 
    91     1      1133.57000       359.33100       621.43500 
    92     1       202.57100       358.57100       623.03600 
    93     1       925.76900       407.55100       621.47600 
    94     1       819.06500       502.14100       620.65500 
    95     1       250.63100       507.12100       620.75400 
    96     1       305.43100       578.93100       623.89900 
    97     1       523.28100       624.13500       629.65400 
    98     1       148.76100       747.03900       632.09000 
    99     1       340.19100       815.33700       634.75000 
   100     1       366.08100       836.85100       634.08800 
   101     1       346.00100      1028.90000       632.57000 
   102     1       274.42100      1038.26000       634.31100 
   103     1       596.49100      1040.99000       628.20800 
   104     1        56.47100      1143.90000       632.86100 
   105     1       649.60500        61.86100       631.13100 
   106     1       793.35900        62.15100       630.69300 
   107     1       244.62100        87.65100       635.58400 
   108     1       474.89100        86.56100       631.44900 
   109     1       873.34500       120.87100       633.32100 
   110     1       676.57400       169.68100       634.99000 
   111     1       168.42100       193.68100       628.77700 
   112     1       390.30100       193.27100       634.99800 
   113     1      1094.04000       208.39100       632.27000 
   114     1       290.90100       204.99100       635.49100 
   115     1       868.36100       343.65100       635.15400 
   116     1       170.94100       418.78100       633.16900 
   117     1       583.42100       535.88100       629.38800 
   118     1       791.98600       606.68800       638.47200 
   119     1      1195.98000       620.89500       643.52900 
   120     1      1006.83000       849.06200       637.92500 
   121     1       390.50100       859.56700       641.26900 
   122     1       408.78100       887.30800       640.96800 
   123     1       516.87100       900.54500       643.38900 
   124     1       927.93000       918.82100       641.27100 
   125     1       379.37100       976.48100       640.84500 
   126     1       984.09900      1078.36000       637.49600 
   127     1      1138.09000      1118.35000       640.61400 
   128     1       345.49100      1137.87000       638.53700 
   129     1       518.40100      1180.13000       637.59600 
   130     1        59.14100        13.01100       637.66700 
   131     1       924.79700       100.65100       639.57300 
   132     1       148.10100       125.38100       640.28800 
   133     1       301.37100       134.94100       637.12500 
   134     1       620.67200       147.80100       642.55300 
   135     1       106.28100       179.81100       640.66400 
   136     1        39.15100       204.53100       635.74400 
   137     1       232.57100       205.78100       639.36800 
   138     1       459.47100       250.90100       639.28700 
   139     1       121.03100       343.86100       639.37000 
   140     1       428.04100       346.49100       638.33700 
   141     1       812.31000       359.53100       638.32000 
   142     1       728.67900       475.96100       639.35100 
   143     1       771.18400       492.15100       641.60700 
   144     1       146.58100       585.49100       640.24700 
   145     1       350.72100       583.51100       642.44500 
   146     1       722.19800       604.06000       648.56000 
   147     1       578.15100       637.83000       644.52700 
   148     1       718.38300       653.04700       644.40600 
   149     1       151.89100       657.68800       644.69800 
   150     1       710.06700       694.11600       648.67400 
   151     1       474.21100       704.80000       645.19600 
   152     1        68.75100       717.41900       651.47100 
   153     1       556.71100       717.59900       651.63700 
   154     1       646.59000       728.12000       644.07200 
   155     1       557.30100       725.09100       650.85900 
   156     1      1044.45000       810.25800       645.32400 
   157     1        18.23100       844.67300       650.09600 
   158     1      1024.49000       851.74400       645.39000 
   159     1      1131.48000       903.26700       645.60700 
   160     1       801.90600       996.75800       647.11300 
   161     1       237.08100       996.23700       646.35100 
   162     1       376.24100       991.49700       648.54400 
   163     1       909.36500      1036.07000       649.02400 
   164     1      1137.41000      1048.97000       651.35300 
   165     1       997.65500      1133.78000       647.89000 
   166     1      1028.32000      1129.10000       646.60400 
   167     1       907.18400      1161.56000       646.41800 
   168     1       236.11100      1159.81000       650.09200 
   169     1       261.62100      1193.15000       645.85500 
   170     1       535.83100        19.72100       644.61700 
   171     1       395.89100        33.64100       649.48700 
   172     1       145.10100       259.78100       651.45900 
   173     1       495.65100       283.74100       651.04300 
   174     1       259.72100       323.97100       650.61900 
   175     1       784.10600       356.10100       650.92100 
   176     1       278.51100       363.42100       646.58300 
   177     1       831.83900       371.99100       647.48200 
   178     1       624.64000       410.97100       647.61600 
   179     1      1079.88000       471.06100       651.72200 
   180     1       651.27300       524.44100       644.80700 
   181     1       551.93100       532.46100       645.13500 
   182     1      1032.75000       552.11100       647.81700 
   183     1       796.45100       587.91100       647.91400 
   184     1       413.79100       605.79800       658.00400 
   185     1       842.62100       654.55200       656.27300 
   186     1      1127.23000       684.41600       655.41500 
   187     1       335.30100       728.86100       659.61900 
   188     1       570.59100       747.24600       657.71000 
   189     1       966.70500       776.58000       657.71000 
   190     1      1173.48000       782.26300       653.50200 
   191     1      1172.99000       806.31900       652.46300 
   192     1       625.91600       817.44200       657.52300 
   193     1       909.53000       849.95700       653.58900 
   194     1       532.47100       870.91100       658.92500 
   195     1       361.05100       936.49000       654.74400 
   196     1      1067.49000       991.42200       656.65100 
   197     1      1123.80000       991.28400       659.82700 
   198     1       504.77100      1137.81000       653.17800 
   199     1      1141.11000      1181.01000       658.08300 
   200     1      1151.39000      1187.90000       658.74200 
   201     1       957.19400        35.96100       654.49000 
   202     1       672.04400        56.90100       653.52200 
   203     1       135.50100       129.69100       656.76800 
   204     1       446.19100       178.10100       659.14500 
   205     1      1052.93000       236.42100       658.33100 
   206     1      1089.49000       267.73100       655.37800 
   207     1       646.72300       276.54100       657.88500 
   208     1       117.50100       285.16100       654.56200 
   209     1       531.86100       330.53100       652.89900 
   210     1      1073.90000       362.78100       652.26200 
   211     1       263.25100       385.55100       656.71700 
   212     1       334.97100       380.80100       652.59500 
   213     1       154.17100       445.95100       654.09300 
   214     1      1191.19000       514.80100       652.98900 
   215     1       535.14100       514.94100       655.34800 
   216     1       708.35100       519.82100       654.16000 
   217     1      1022.94000       590.45100       654.10600 
   218     1      1189.82000       640.98800       664.45100 
   219     1        67.30100       639.39900       664.09400 
   220     1       737.06500       644.97800       663.21000 
   221     1       528.88100       648.38800       667.68300 
   222     1       113.29100       663.27600       662.69100 
   223     1       341.03100       706.38500       665.14500 
   224     1       403.40100       710.69500       666.01800 
   225     1       901.15000       721.70400       663.22500 
   226     1        46.14100       720.55800       662.86000 
   227     1       284.66100       716.41700       666.41400 
   228     1       885.40200       796.67600       665.46600 
   229     1       142.74100       907.51300       661.88300 
   230     1       473.94100       911.81200       667.70700 
   231     1      1007.52000       959.13300       660.59200 
   232     1       732.98200      1006.85000       661.65300 
   233     1      1203.08000      1023.75000       663.04400 
   234     1       622.58000        44.44100       664.01600 
   235     1       947.35600        95.59100       663.00300 
   236     1      1054.59000       118.19100       665.66900 
   237     1       339.66100       122.55100       665.18100 
   238     1       219.00100       162.42100       666.08600 
   239     1       770.00000       188.32100       660.05200 
   240     1       329.53100       191.96100       665.04600 
   241     1      1190.79000       206.72100       664.61500 
   242     1      1063.84000       244.86100       661.38600 
   243     1       156.34100       245.36100       661.18000 
   244     1       172.13100       256.51100       666.79400 
   245     1       189.21100       260.60100       665.74100 
   246     1       609.26700       276.32100       664.42800 
   247     1       700.86900       305.81100       666.03300 
   248     1       107.22100       339.68100       663.54700 
   249     1       871.92100       384.47100       667.74500 
   250     1       583.43100       392.76100       665.71500 
   251     1       261.23100       436.61100       664.04900 
   252     1       143.91100       558.95100       667.50000 
   253     1       403.16100       581.42100       663.99300 
   254     1       988.87600       620.33700       673.50300 
   255     1       666.69400       647.65000       669.27500 
   256     1       721.17900       670.21000       667.94900 
   257     1       150.79100       715.13800       671.40300 
   258     1       723.41000       717.52700       670.30700 
   259     1         2.03100       716.31600       672.16700 
   260     1      1011.41000       917.81100       675.05900 
   261     1       549.62100       942.66900       675.59800 
   262     1       807.49300      1013.61000       668.11000 
   263     1       670.06200      1074.26000       672.76000 
   264     1       225.06100      1119.50000       672.75800 
   265     1      1129.02000      1146.90000       669.30600 
   266     1       351.96100      1146.97000       670.12600 
   267     1       887.20200       146.61100       671.21300 
   268     1       883.14900       182.06100       671.58000 
   269     1       798.29000       187.78100       673.35900 
   270     1      1054.82000       188.33100       675.48100 
   271     1       273.27100       393.93100       673.79500 
   272     1       679.20600       458.96100       672.51500 
   273     1       714.23000       524.35100       671.50000 
   274     1       864.50200       528.34100       674.32800 
   275     1       442.22100       603.20100       675.40200 
   276     1       126.67100       613.58200       681.21900 
   277     1       282.01100       639.98200       682.97300 
   278     1       281.18100       646.89700       676.33800 
   279     1       255.91100       658.03600       682.27300 
   280     1       725.95200       681.75800       678.67100 
   281     1       657.27000       689.14600       678.89300 
   282     1        74.98100       697.05300       681.26900 
   283     1       752.08100       713.54600       676.30300 
   284     1       266.17100       737.27000       680.10000 
   285     1       404.18100       784.82200       677.87600 
   286     1       651.57100       797.55500       679.14500 
   287     1      1165.83000       876.50400       683.50800 
   288     1       752.92700       879.69800       680.13000 
   289     1       929.68600       892.35800       682.13700 
   290     1       287.72100       890.56600       678.82500 
   291     1      1182.84000       912.74800       682.44200 
   292     1       654.17000       960.86300       681.54000 
   293     1      1048.19000       974.11800       683.11200 
   294     1       259.96100      1088.63000       677.28900 
   295     1      1202.38000      1102.56000       681.17100 
   296     1       524.72100      1105.17000       683.72800 
   297     1       523.38100      1131.81000       683.31600 
   298     1        92.97100      1151.00000       679.80300 
   299     1       938.22300      1185.77000       683.14400 
   300     1       689.55600         1.75100       678.32400 
   301     1       250.98100        34.19100       683.60400 
   302     1       182.52100        67.97100       681.81700 
   303     1       169.36100       157.24100       679.00300 
   304     1       408.21100       159.42100       681.70000 
   305     1      1086.74000       181.89100       676.86400 
   306     1       213.19100       277.61100       679.64400 
   307     1      1133.78000       293.68100       677.59400 
   308     1       424.66100       297.17100       679.75900 
   309     1       720.74000       325.56100       678.57200 
   310     1      1011.14000       378.81100       680.50900 
   311     1       803.33300       482.69100       681.94800 
   312     1       941.43300       530.54100       677.50800 
   313     1       323.39100       563.31100       678.72100 
   314     1       999.71800       617.16900       687.03400 
   315     1       367.25100       612.41600       689.86500 
   316     1       892.70800       685.84800       688.05000 
   317     1       735.29200       760.38200       684.17100 
   318     1       755.61000       793.77000       686.94200 
   319     1       182.17100       801.38100       685.57100 
   320     1       292.95100       827.79300       685.96900 
   321     1      1013.25000       836.67700       689.73400 
   322     1       791.78000       845.43300       687.13100 
   323     1      1091.51000       845.32000       687.37500 
   324     1      1056.35000       902.98700       687.82300 
   325     1       375.57100       974.06300       691.00100 
   326     1       623.37900       983.94900       691.16900 
   327     1      1124.05000       997.35200       686.37700 
   328     1       261.12100      1015.11000       686.64200 
   329     1       319.69100      1042.35000       691.89200 
   330     1       762.50100      1059.63000       686.75800 
   331     1       151.19100      1073.01000       686.10700 
   332     1      1029.07000      1081.02000       685.46700 
   333     1      1088.40000      1099.71000       691.95800 
   334     1       468.49100      1162.95000       684.67500 
   335     1       153.30100      1203.30000       687.87100 
   336     1       521.87100        10.87100       690.12400 
   337     1      1091.05000        36.16100       691.75300 
   338     1       193.66100       114.74100       686.76300 
   339     1        85.82100       173.61100       687.81800 
   340     1       450.45100       259.40100       684.64100 
   341     1      1048.49000       292.87100       685.77200 
   342     1       736.73300       337.20100       688.91700 
   343     1      1030.56000       365.36100       689.85100 
   344     1       513.40100       377.71100       684.13200 
   345     1       893.43000       395.08100       691.61600 
   346     1       927.91800       424.32100       687.18200 
   347     1       507.09100       422.53100       686.57600 
   348     1       390.95100       531.35100       689.75000 
   349     1       640.81300       635.16400       694.13200 
   350     1      1173.01000       677.78900       694.82300 
   351     1       974.71900       707.78600       699.61100 
   352     1       253.68100       721.10100       694.54400 
   353     1       346.71100       723.54800       697.44300 
   354     1       875.56000       727.40300       697.19700 
   355     1      1061.12000       724.60300       695.74100 
   356     1       636.34500       769.09300       698.55400 
   357     1       688.31000       777.93200       695.95700 
   358     1      1050.76000       779.63900       692.12200 
   359     1       403.44100       802.87900       697.82100 
   360     1       253.37100       824.73000       694.12300 
   361     1       247.02100       844.81200       693.57600 
   362     1       928.98200       850.64900       697.29100 
   363     1      1155.34000       969.97400       698.76200 
   364     1       235.67100       969.28900       698.37100 
   365     1       307.41100      1008.41000       697.78700 
   366     1       665.78900      1067.22000       693.00900 
   367     1        18.35100      1182.90000       695.44900 
   368     1       609.59300        28.52100       699.99300 
   369     1       308.63100        36.90100       698.33600 
   370     1       828.37600       121.65100       697.36400 
   371     1       954.55300       126.29100       692.92600 
   372     1       181.47100       174.64100       696.26400 
   373     1       956.77600       181.16100       695.25800 
   374     1        55.36100       192.43100       696.72100 
   375     1       730.85700       235.28100       693.53500 
   376     1       135.44100       312.48100       694.28300 
   377     1      1057.66000       318.70100       699.81500 
   378     1       564.00100       338.21100       698.66400 
   379     1      1201.78000       361.29100       693.79500 
   380     1       545.26100       366.60100       697.03100 
   381     1       674.51200       378.58100       700.01800 
   382     1      1056.69000       431.64100       693.95400 
   383     1       763.29800       446.36100       698.36300 
   384     1       145.81100       527.42100       693.29000 
   385     1      1072.78000       589.43100       695.42400 
   386     1       375.71100       761.55100       707.66200 
   387     1       573.73100       886.81500       706.05100 
   388     1       864.66000       932.86200       700.42800 
   389     1       103.94100       950.50400       706.88000 
   390     1       824.27800       982.57800       702.62900 
   391     1       651.38100      1007.82000       700.30500 
   392     1       201.90100      1078.03000       700.39500 
   393     1       501.62100      1128.49000       703.83200 
   394     1       631.46900      1147.39000       707.92400 
   395     1       675.82500      1153.96000       703.47800 
   396     1        80.26100      1161.72000       702.99600 
   397     1       656.00800      1203.23000       705.14000 
   398     1       726.61300        15.02100       705.09700 
   399     1       514.18100        87.19100       704.10000 
   400     1       235.76100        98.64100       702.19100 
   401     1      1124.99000       164.14100       701.64400 
   402     1      1058.56000       173.36100       704.50900 
   403     1      1180.37000       210.56100       700.09200 
   404     1       851.46700       245.99100       704.74300 
   405     1      1033.16000       269.45100       705.22900 
   406     1       810.94300       353.10100       705.14300 
   407     1       137.51100       368.83100       703.38300 
   408     1       479.87100       463.92100       702.58900 
   409     1       644.31900       507.41100       701.00800 
   410     1       867.35200       554.27100       701.26100 
   411     1       265.72100       579.08100       704.30800 
   412     1       720.54900       604.48800       711.89900 
   413     1       105.78100       692.19500       710.14400 
   414     1       818.54000       714.58400       715.03900 
   415     1       372.10100       729.03100       715.83900 
   416     1       392.18100       749.59800       715.40800 
   417     1       869.72800       788.40200       714.65900 
   418     1       642.42100       801.23200       709.46900 
   419     1       479.42100       839.49600       714.09000 
   420     1      1070.27000       850.03500       709.35600 
   421     1       867.65600       856.46000       708.86000 
   422     1       473.24100       956.07300       711.05500 
   423     1      1009.31000      1055.20000       714.81500 
   424     1       441.31100      1057.10000       714.53200 
   425     1       931.52100      1119.56000       714.25000 
   426     1       545.50100      1140.49000       709.60200 
   427     1       831.73800      1151.05000       709.83200 
   428     1      1198.89000      1161.48000       713.26200 
   429     1       408.39100      1195.15000       712.02700 
   430     1       452.83100        84.10100       710.96900 
   431     1      1044.97000        97.61100       715.04900 
   432     1      1149.16000       106.83100       714.36300 
   433     1       934.80400       162.35100       715.16300 
   434     1       510.73100       234.36100       714.08100 
   435     1       677.95500       242.13100       716.12100 
   436     1       129.87100       244.79100       713.37900 
   437     1       258.21100       296.84100       714.65500 
   438     1        68.86100       380.42100       714.64000 
   439     1      1201.46000       402.21100       709.54800 
   440     1      1184.43000       449.92100       709.47400 
   441     1        83.21100       519.99100       715.84300 
   442     1      1004.47000       557.65100       714.17100 
   443     1       261.71100       588.40100       712.07100 
   444     1       109.75100       732.62600       723.60600 
   445     1       145.44100       770.24100       719.17500 
   446     1       510.82100       787.66200       722.31300 
   447     1      1173.31000       816.79900       721.29200 
   448     1      1028.30000       826.61400       718.47900 
   449     1       471.44100       848.93300       722.05800 
   450     1       863.69900       858.82400       724.07500 
   451     1       837.61800       877.91100       719.44700 
   452     1       135.56100       892.42100       720.59400 
   453     1       847.09300       893.70200       720.46400 
   454     1       846.93300       899.79300       718.06000 
   455     1       196.59100       908.62700       719.72900 
   456     1       615.82900       917.08900       722.20700 
   457     1       176.86100       917.04200       717.14600 
   458     1        60.17100       943.18800       718.67500 
   459     1       191.15100       948.09000       718.24700 
   460     1      1115.83000       978.52100       723.79900 
   461     1       714.79900      1050.34000       723.58800 
   462     1       186.49100      1066.52000       717.42200 
   463     1      1169.85000      1070.90000       718.23800 
   464     1       448.55100      1123.39000       720.27300 
   465     1       860.07500      1174.27000       720.24700 
   466     1       996.75600      1175.33000       721.12700 
   467     1       790.44800         8.92100       718.95200 
   468     1       266.46100        33.02100       717.44700 
   469     1       113.23100        71.65100       716.30900 
   470     1       717.52100       106.44100       721.35900 
   471     1      1121.68000       128.14100       716.88100 
   472     1       915.88600       175.96100       717.08300 