LAMMPS Description. time=0 
 
      10000  atoms 
          2  atom types 
 
        0.00000      1206.99900 xlo xhi 
        0.00000      1206.99900 ylo yhi 
        0.00000      1206.99900 zlo zhi 
 
Atoms 
 
     1     1       101.88312       102.02890       100.77218
     2     1       100.55780        99.02117        99.84695
     3     1        98.14674       100.77480       100.90428
     4     1        99.87117        98.47036       101.94472
     5     1       102.38183       100.02821        98.87810
     6     1       101.55529        99.75469       101.42782
     7     1        99.57410       103.25559       100.86324
     8     1       100.48141       101.48061       102.50569
     9     1        98.10804        99.34931        99.14658
    10     1       103.87367       100.90677       100.46801
    11     1        99.98353       101.34628        99.65905
    12     1       101.42929       102.56564       302.07922
    13     1       101.52976        98.22588       300.38910
    14     1        98.17564       100.18730       302.41579
    15     1        99.88990        98.27154       301.84529
    16     1       102.48268       100.40070       300.54124
    17     1       101.15249       100.07591       303.02657
    18     1        99.38783       103.39665       301.93022
    19     1        99.72924       101.70821       303.60739
    20     1        98.94170        99.45511       300.08777
    21     1       103.62369       101.25056       302.09459
    22     1       100.07443       100.87916       301.23278
    23     1       101.07177       102.96982       503.63373
    24     1       101.94154        98.68774       501.23801
    25     1        98.14731       100.37326       503.07113
    26     1       100.55441        98.10713       502.76084
    27     1       102.44416       101.39581       502.37082
    28     1       101.28266       100.08643       504.07675
    29     1        98.74404       102.57018       502.64996
    30     1        99.42098       101.60007       504.52983
    31     1        99.23417        98.73085       501.16746
    32     1       103.37784       101.11144       504.60928
    33     1       100.19778       100.78394       501.97551
    34     1       100.69100       102.32801       704.85386
    35     1       102.34462        99.89676       702.37065
    36     1        98.70564        99.76223       703.79777
    37     1        99.76623        98.12763       704.78557
    38     1       103.04286       101.69717       704.14171
    39     1       101.10085        99.84470       704.36243
    40     1        98.19769       102.20952       704.16842
    41     1        98.74964       100.70471       705.68246
    42     1       100.50270        98.70787       702.05726
    43     1       102.95176       101.80075       706.28509
    44     1       100.36370       101.33734       702.41146
    45     1       100.12657       101.76651       905.36350
    46     1       103.67352       100.69780       903.08522
    47     1        99.15441       100.05892       904.41900
    48     1        98.60659        98.41899       905.57101
    49     1       102.51232       102.06985       905.61411
    50     1       101.33530        99.53123       905.98956
    51     1        97.62524       101.40675       906.00834
    52     1        99.21639        99.97673       907.34376
    53     1       101.68897        99.06138       903.83730
    54     1       101.13121       102.23363       907.37717
    55     1       101.34619       101.19493       903.14099
    56     1       100.45796       102.30649      1106.22542
    57     1       103.67721       101.38807      1104.90218
    58     1        99.86460        99.75471      1105.50678
    59     1        98.67735        97.95321      1106.37371
    60     1       102.72195       101.95517      1106.82917
    61     1       101.16549       100.22957      1107.36128
    62     1        96.74092       100.20477      1107.10899
    63     1        98.82064        99.33105      1108.07445
    64     1       102.49929        99.38311      1105.61056
    65     1       100.53606       102.40043      1108.29622
    66     1       101.25520       101.51013      1104.29460
    67     1        99.29939       303.38652       100.95281
    68     1       103.66737       302.48524        99.36470
    69     1        99.13422       301.99871        99.12035
    70     1       100.19554       299.95745        99.71191
    71     1       101.79442       304.29402       100.23733
    72     1       100.46348       301.01154       101.93973
    73     1        97.82918       299.57238        99.38776
    74     1        98.57062       299.62388       101.74152
    75     1       102.93640       302.31943       101.85324
    76     1       100.81815       303.13964       102.32354
    77     1       101.70788       301.46117        99.78378
    78     1        99.45698       302.70705       302.12491
    79     1       103.36130       303.37013       301.10574
    80     1        99.42093       301.14736       300.07255
    81     1       100.29193       299.07026       301.15931
    82     1       101.22609       304.41910       302.01803
    83     1       100.46846       301.27527       303.45257
    84     1        98.86262       299.26741       298.93265
    85     1        98.45775       300.13266       302.40379
    86     1       102.44257       302.57984       302.87554
    87     1       100.80091       303.81471       304.19776
    88     1       101.62708       301.46617       300.90720
    89     1        99.99312       302.64569       503.38665
    90     1       102.06530       303.92897       501.76391
    91     1       100.15416       300.97554       500.47690
    92     1       100.05563       299.13102       502.43295
    93     1       101.27965       305.12622       503.66555
    94     1       100.78092       300.27885       504.01367
    95     1       100.13259       298.64250       500.06901
    96     1        98.64084       300.78730       503.18795
    97     1       101.65570       302.43410       505.00103
    98     1        99.82065       303.73448       505.64287
    99     1       101.83812       301.56538       502.44285
   100     1        99.80653       302.57812       704.79996
   101     1       100.69347       303.39830       702.66612
   102     1       100.69013       301.09028       701.95072
   103     1       100.31417       299.12946       703.40640
   104     1       100.78147       304.74039       705.39671
   105     1       100.66813       300.50603       705.33439
   106     1       101.42532       299.03136       701.31223
   107     1        98.71537       300.95326       702.97691
   108     1       101.89404       302.34451       706.17980
   109     1        99.23874       303.77622       706.85022
   110     1       102.18929       301.70208       704.04316
   111     1        99.03824       302.43300       906.20717
   112     1        99.54321       303.47847       904.25530
   113     1       101.62599       301.23259       902.76239
   114     1       101.70607       299.67225       904.59836
   115     1       100.56893       304.39328       906.02230
   116     1        98.97684       299.98711       906.17337
   117     1       102.84263       299.23894       902.55454
   118     1        99.67255       300.89551       904.04892
   119     1       101.41405       302.21660       907.43766
   120     1        99.72217       303.75674       908.37921
   121     1       101.30603       301.94549       905.31079
   122     1        98.79194       302.28843      1107.62753
   123     1        99.11454       302.85264      1105.68569
   124     1       101.97230       301.26769      1104.03303
   125     1       103.06036       300.45795      1106.23427
   126     1       100.73178       303.98241      1107.25005
   127     1        99.51161       300.27526      1106.62626
   128     1       103.66746       299.81089      1104.23606
   129     1        98.93915       300.98748      1104.40892
   130     1       100.50168       301.68326      1108.78377
   131     1        99.22632       303.68787      1109.30347
   132     1       100.89952       301.95607      1106.39423
   133     1        97.65303       502.80233       101.52877
   134     1        99.33651       504.15258        99.93657
   135     1       102.17848       501.18966        99.42628
   136     1       103.67048       502.74926       100.90497
   137     1        98.89433       504.89436       102.03537
   138     1        99.49860       501.47791       100.22432
   139     1       104.13770       502.51555        98.84321
   140     1       100.94613       502.03802        97.86226
   141     1       100.35196       503.04501       101.85597
   142     1        98.26629       503.79155       103.93027
   143     1       101.48315       503.42712        99.86873
   144     1        98.73834       502.26982       303.14729
   145     1        98.89747       503.86067       301.34620
   146     1       102.21610       501.08364       301.48162
   147     1       102.95969       503.14712       302.60034
   148     1        98.59399       504.50560       303.32847
   149     1       100.28391       501.76704       300.57798
   150     1       103.54790       502.68446       300.12686
   151     1       102.29949       502.10027       298.26791
   152     1       100.58286       503.46571       303.19692
   153     1        97.04893       503.12199       304.47650
   154     1       101.24804       504.07699       300.69991
   155     1        99.32308       501.44859       504.22209
   156     1        98.76965       503.42528       502.43015
   157     1       101.76035       501.79669       502.98755
   158     1       102.71763       503.94159       503.94954
   159     1        98.40287       503.94289       505.15941
   160     1       100.36577       502.00377       501.54128
   161     1       103.49528       503.23265       501.63625
   162     1       102.46351       501.68472       500.04734
   163     1       100.42752       503.67444       504.19203
   164     1        97.33167       502.50174       503.79785
   165     1       101.35936       504.43093       502.11989
   166     1       100.09008       501.75353       705.01692
   167     1        98.58603       504.41026       703.11769
   168     1       102.46100       502.30077       704.92149
   169     1       103.33938       504.44192       705.26378
   170     1        97.93660       502.06391       705.64258
   171     1        99.84895       502.29874       702.63494
   172     1       103.32815       503.98741       703.14371
   173     1       101.84985       501.44781       702.68472
   174     1        99.92672       504.09958       705.46240
   175     1        97.91944       501.36331       703.48902
   176     1       101.13046       503.91612       703.53941
   177     1       100.13777       502.02947       905.23848
   178     1        97.66468       503.41430       904.58976
   179     1       103.02283       502.85682       906.71670
   180     1       102.64321       505.16017       906.48442
   181     1        97.88940       501.86343       906.31203
   182     1        99.87563       502.58849       903.17350
   183     1       103.88574       503.64509       904.52207
   184     1       102.65851       501.77358       904.53281
   185     1        99.37142       503.43263       907.29916
   186     1        98.05446       501.25044       903.66269
   187     1       101.21297       504.06893       905.21834
   188     1       100.17885       500.65945      1106.60224
   189     1        98.87157       503.40011      1106.07601
   190     1       101.83203       503.01007      1108.18990
   191     1       102.16715       505.72878      1107.12065
   192     1        97.92063       501.45804      1106.98897
   193     1       100.31614       502.88319      1104.39194
   194     1       103.74836       504.25227      1106.68542
   195     1       102.09080       502.40116      1105.75781
   196     1        99.62952       502.74151      1107.99659
   197     1        98.94800       501.16747      1104.26446
   198     1       100.71364       504.38127      1106.50935
   199     1       100.33897       701.11084       100.36611
   200     1        99.30481       703.07224        99.35938
   201     1       100.42140       705.19201       102.22094
   202     1       102.40730       707.97591       102.70654
   203     1        98.11840       701.28735       100.70665
   204     1       101.05993       704.43348        98.23909
   205     1       102.55457       706.06656       101.56465
   206     1       101.63361       703.79265       100.30032
   207     1        99.64475       702.94195       101.91759
   208     1       100.44467       701.71716        97.94966
   209     1       100.48824       707.32655       101.08573
   210     1       100.91178       701.53289       301.52587
   211     1        99.23335       703.00737       300.49808
   212     1        99.72185       705.29015       302.36320
   213     1       101.40220       707.20190       304.17018
   214     1        98.70137       701.20482       301.71864
   215     1       100.78594       704.66211       300.21284
   216     1       101.96753       705.57773       302.60029
   217     1       102.11798       703.49395       301.70842
   218     1        99.40230       703.01838       302.78616
   219     1       101.78156       702.14746       299.41537
   220     1       100.39086       707.77990       302.25100
   221     1       100.81139       701.40817       503.34000
   222     1        99.87255       703.36154       501.98079
   223     1        98.68435       705.25748       502.99160
   224     1        99.48403       705.54716       504.91200
   225     1        98.94565       700.51293       502.34039
   226     1       101.53057       705.46460       501.40225
   227     1       101.94298       705.66755       503.74717
   228     1       102.40271       703.33145       503.35420
   229     1       100.30791       703.88729       504.08988
   230     1       102.09537       703.33311       500.95279
   231     1       100.33916       707.14537       502.97227
   232     1       101.37633       701.80584       704.71211
   233     1       100.38864       703.28448       702.60490
   234     1        98.56594       704.76042       703.11991
   235     1        97.62725       705.66967       705.75322
   236     1        99.45288       701.23446       702.73139
   237     1       100.95047       705.33516       703.52737
   238     1       102.40047       705.27374       705.25101
   239     1       103.05379       703.31940       704.67886
   240     1       100.29223       704.07691       705.64904
   241     1       102.69757       703.55996       702.30330
   242     1        99.61108       706.59668       704.58561
   243     1       101.23807       702.18896       905.54167
   244     1       100.47218       703.66135       903.10856
   245     1        98.94412       704.92156       903.92986
   246     1        97.57705       704.40076       906.05340
   247     1        99.85405       701.13066       904.03608
   248     1       101.71826       705.31982       904.68174
   249     1       101.60328       705.92518       906.79299
   250     1       102.55826       703.94443       906.44202
   251     1       100.39881       704.14433       906.55524
   252     1       102.92222       703.43746       903.86020
   253     1        99.13042       705.84218       906.74824
   254     1       101.94595       701.85897      1107.03699
   255     1       101.25316       703.96750      1104.30006
   256     1        99.07308       705.45694      1105.77553
   257     1        97.93055       702.90885      1105.76560
   258     1        99.83279       702.09796      1105.26730
   259     1       101.42030       705.22985      1106.08722
   260     1       100.37692       706.51219      1107.85500
   261     1       102.89553       703.94846      1107.72901
   262     1       100.19470       703.68998      1107.36612
   263     1       103.26364       703.50880      1105.45700
   264     1        98.23006       705.73716      1107.94345
   265     1       102.22850       903.39626       102.29176
   266     1       101.77408       906.40219        98.82986
   267     1        99.32762       906.29290        99.16683
   268     1        97.91681       903.96534        98.64202
   269     1       100.24490       903.88071        99.22354
   270     1       100.90982       907.29826       100.64027
   271     1        98.87384       906.77042       101.96576
   272     1       102.49139       905.83373       102.79486
   273     1       100.74996       904.82761       101.12846
   274     1       103.19196       904.91460       100.45238
   275     1        98.70777       904.16794       101.28098
   276     1       102.33816       904.59281       303.99704
   277     1       101.61534       906.17952       300.59141
   278     1        99.10426       905.98914       300.82261
   279     1        99.13204       904.55311       298.60556
   280     1       100.90171       903.88258       300.05282
   281     1       100.36797       907.46658       302.82418
   282     1        98.33019       904.91988       303.47385
   283     1       102.51388       906.99551       303.46155
   284     1       100.51735       904.95493       302.29895
   285     1       103.16637       904.63128       301.80999
   286     1        98.42935       903.58469       301.31203
   287     1       102.01837       905.73682       505.52550
   288     1       101.03835       906.44122       501.88594
   289     1        98.68336       906.01081       501.76596
   290     1       100.20604       905.54263       499.97080
   291     1       101.13098       904.09472       501.60700
   292     1        99.56453       905.85260       504.32512
   293     1        98.27718       904.31093       503.43338
   294     1       102.65423       907.46388       503.62658
   295     1       100.81315       903.69618       504.72318
   296     1       103.00168       905.10479       503.79170
   297     1        99.02883       903.49543       501.42822
   298     1       100.77777       907.11335       706.80940
   299     1       100.94047       906.90853       703.51567
   300     1        98.79585       905.57405       703.01181
   301     1       100.61310       906.13227       701.22695
   302     1       101.05046       903.93846       703.20742
   303     1        99.66128       905.22450       705.24395
   304     1        99.23958       903.02574       703.89088
   305     1       102.07692       907.73471       705.14554
   306     1       101.55766       902.99761       706.15754
   307     1       102.37358       905.27751       705.14167
   308     1        99.32998       903.82325       701.56583
   309     1        99.69640       906.32313       906.56527
   310     1       100.81936       907.23534       904.99101
   311     1        99.41959       905.16339       904.73956
   312     1       100.26902       905.78831       902.65147
   313     1       102.14050       905.03330       904.52676
   314     1        98.34712       903.95795       907.07582
   315     1        99.97992       902.79065       904.79583
   316     1       101.97116       908.01953       906.94309
   317     1       101.17734       904.02897       906.13272
   318     1       102.33628       905.83794       906.62538
   319     1       100.25993       903.57154       902.70314
   320     1        99.45420       905.82169      1108.86267
   321     1       101.26276       907.49147      1106.02444
   322     1        99.49085       904.40236      1104.90002
   323     1       100.35497       906.49937      1104.32976
   324     1       102.21599       905.32000      1105.70333
   325     1        98.71230       904.05438      1107.29023
   326     1       100.18736       902.06729      1105.93592
   327     1       100.21290       907.90185      1108.19213
   328     1       100.93534       904.40714      1107.23706
   329     1       102.24619       906.37377      1107.86459
   330     1       101.34383       903.41073      1104.24320
   331     1        99.85267      1105.29071       103.38728
   332     1       100.94097      1109.18265       100.16455
   333     1       100.52544      1104.97608        98.71721
   334     1       100.56454      1107.32319        98.30523
   335     1       102.75201      1107.84756        99.92573
   336     1        98.59715      1105.51606        99.54658
   337     1       100.38499      1104.10898       100.80237
   338     1        98.87711      1107.18731       101.50045
   339     1       100.85261      1106.56488       100.83389
   340     1       100.47979      1107.37105       103.29609
   341     1       102.58940      1105.21484        99.93726
   342     1       100.09011      1104.75835       304.71150
   343     1        99.43306      1108.68804       301.55639
   344     1       101.94185      1105.24717       299.01307
   345     1       101.25120      1107.47531       299.59880
   346     1       102.94413      1107.81306       301.01596
   347     1        99.56719      1105.29263       300.44044
   348     1       100.16725      1104.84950       302.58161
   349     1        98.36110      1106.49839       301.99649
   350     1       101.17316      1107.33848       302.56850
   351     1        99.50447      1106.91513       304.35302
   352     1       101.98311      1105.70724       301.41425
   353     1        99.93901      1105.46003       506.72177
   354     1        99.23443      1107.18466       502.17703
   355     1       102.54722      1106.44634       500.25920
   356     1       101.16791      1108.09069       501.24636
   357     1       102.95125      1107.40411       502.32257
   358     1       100.15676      1105.97779       500.40597
   359     1       100.85283      1105.04590       504.86303
   360     1        98.66478      1104.90086       502.25786
   361     1       100.84530      1107.59924       504.51304
   362     1        98.87821      1106.34650       504.52470
   363     1       101.17901      1106.12725       502.79177
   364     1        98.92087      1107.11780       706.88445
   365     1        99.08702      1106.83436       703.54267
   366     1       102.49653      1107.48807       702.22326
   367     1       100.80090      1108.40090       703.37507
   368     1       102.49157      1107.02256       704.56179
   369     1       100.33212      1106.64447       701.44922
   370     1       101.58547      1105.34535       706.04985
   371     1        99.75732      1103.66658       702.96566
   372     1       100.31944      1107.69894       705.43921
   373     1        99.47701      1104.82867       705.03342
   374     1       101.14841      1105.53564       703.39211
   375     1        97.53553      1105.98421       906.55328
   376     1        99.33991      1106.00160       905.28250
   377     1       103.03016      1107.44388       903.52926
   378     1       100.88963      1108.32833       904.96025
   379     1       103.38319      1107.57655       905.74854
   380     1       100.34777      1106.80464       903.32210
   381     1       101.04276      1106.80572       906.43773
   382     1       100.04085      1104.34888       904.04440
   383     1        99.11728      1107.81716       906.82093
   384     1        99.76224      1104.02309       906.42489
   385     1       101.92730      1105.44923       904.62610
   386     1        97.98857      1104.91025      1106.55167
   387     1        99.48932      1107.22261      1107.06933
   388     1       102.88428      1107.81178      1104.47601
   389     1       101.41408      1108.47236      1105.94161
   390     1       103.20861      1107.67704      1107.15439
   391     1       100.46995      1106.49430      1104.66814
   392     1       101.70979      1106.08012      1108.60430
   393     1       100.22196      1104.32033      1105.22375
   394     1        96.97640      1106.63238      1107.24473
   395     1       100.04716      1105.06414      1107.42211
   396     1       102.00656      1105.89806      1106.22733
   397     1       302.92481        99.32724        99.02891
   398     1       300.33806       100.62571       101.01083
   399     1       304.08321       100.79352       100.25331
   400     1       300.35964       103.18713       101.42914
   401     1       302.52500       102.26709       101.60666
   402     1       299.36905       101.95994        99.44796
   403     1       302.78473       100.09871       102.80009
   404     1       303.48057        98.37256       101.09293
   405     1       300.10621        99.92638        98.63444
   406     1       301.35926        98.36850       101.63007
   407     1       301.91942       101.48984        99.48237
   408     1       303.19383        99.53380       300.39399
   409     1       300.74073       100.15735       302.10678
   410     1       303.95916       101.47374       301.41871
   411     1       300.00898       102.16490       302.31827
   412     1       302.30635       101.88790       302.98695
   413     1       299.50493       101.03012       300.10766
   414     1       301.64559        99.33685       304.55322
   415     1       303.50888        99.51240       302.76855
   416     1       301.39838       100.91817       298.95223
   417     1       301.65261        97.78137       303.14867
   418     1       301.33058       102.62010       300.49497
   419     1       302.74473        99.07199       501.25784
   420     1       301.58955        99.64611       503.15902
   421     1       303.62565       101.30303       502.52218
   422     1       299.14623       101.26211       503.45185
   423     1       300.85537       102.31095       505.01090
   424     1       300.58833       100.44503       500.95935
   425     1       300.44391       100.07943       504.76633
   426     1       303.21735       100.33735       504.58844
   427     1       302.71424       101.88913       500.35888
   428     1       303.20964        97.97493       503.43935
   429     1       301.11499       102.09660       502.56914
   430     1       303.17991        99.27236       701.84355
   431     1       301.59953        99.31715       704.25270
   432     1       303.97147       101.01103       704.21676
   433     1       299.42827       100.02787       703.24364
   434     1       300.25745       102.91220       706.62586
   435     1       300.99703       100.34239       701.89236
   436     1       299.86178       100.19053       706.09743
   437     1       302.03775       101.13605       706.05218
   438     1       302.56734       102.00465       702.80456
   439     1       304.45601        98.33538       703.70613
   440     1       300.89351       101.86702       704.18149
   441     1       304.21453       100.69994       903.60071
   442     1       301.90694        99.39701       905.13854
   443     1       304.21419       100.67587       905.84851
   444     1       299.14560        98.95957       904.26148
   445     1       299.80908       102.49254       907.07455
   446     1       300.92583       100.50629       903.68233
   447     1       300.02981        99.58493       906.57005
   448     1       301.88132       101.04836       906.60811
   449     1       302.46118       102.17423       904.99796
   450     1       304.50987        98.73477       905.17404
   451     1       300.15166       102.14320       904.79369
   452     1       303.52252       100.76765      1105.64286
   453     1       302.43067        98.82961      1105.84743
   454     1       303.79280       101.65593      1107.80782
   455     1       300.18104        98.50851      1104.84140
   456     1       299.18328       101.94855      1107.89495
   457     1       301.05503       100.70670      1104.59385
   458     1       300.54472       100.16898      1106.87198
   459     1       302.33158       100.19356      1108.41668
   460     1       301.80319       102.12499      1106.61310
   461     1       304.60922        99.09698      1106.52413
   462     1       299.79593       102.41523      1105.52914
   463     1       301.99145       302.98115       100.15842
   464     1       303.86273       301.04045       100.00011
   465     1       303.12769       303.47073       102.20039
   466     1       302.52789       299.77593        98.77953
   467     1       299.96398       302.46418       101.26398
   468     1       301.50900       301.96924        98.10430
   469     1       300.02659       300.93405        99.76805
   470     1       301.78365       300.48188       101.25505
   471     1       301.78463       302.07824       103.52962
   472     1       303.69434       301.36571       102.75634
   473     1       298.97801       302.68841        98.60085
   474     1       301.37518       303.81997       300.82802
   475     1       304.08643       302.80474       302.56906
   476     1       302.04889       303.09486       303.34657
   477     1       302.52623       299.92346       300.30018
   478     1       300.19086       302.06336       302.00061
   479     1       301.57226       301.95893       299.05755
   480     1       300.05825       300.07596       299.98856