LAMMPS Description. time=0 
 
      25000  atoms 
          2  atom types 
 
        0.00000      1206.99900 xlo xhi 
        0.00000      1206.99900 ylo yhi 
        0.00000      1206.99900 zlo zhi 
 
Atoms 
 
     1     1        67.80100       648.67200       604.64000 
     2     1       517.95100       654.45900       608.00400 
     3     1       853.33600       768.75500       610.48200 
     4     1       220.03100       780.07300       610.78600 
     5     1       429.19100       788.95200       608.07200 
     6     1       629.25400       880.66000       610.10600 
     7     1       770.76400       908.44900       606.37800 
     8     1       169.54100       962.01500       608.82700 
     9     1      1041.35000      1027.18000       607.91100 
    10     1       649.29800      1044.42000       609.55200 
    11     1       735.00500      1039.58000       607.18600 
    12     1       136.21100      1049.69000       605.16900 
    13     1       839.93000      1097.59000       605.86900 
    14     1       146.42100      1108.90000       604.05900 
    15     1        24.41100      1115.19000       606.89000 
    16     1       760.96200      1127.75000       603.95500 
    17     1       296.55100      1145.77000       606.07000 
    18     1      1183.00000      1169.52000       607.78600 
    19     1       916.94600      1194.67000       605.05000 
    20     1      1205.99000         9.09100       610.53500 
    21     1       975.26600       121.30100       611.01100 
    22     1        28.14100       129.88100       610.53000 
    23     1       374.71100       134.70100       607.61200 
    24     1       122.55100       159.08100       603.66000 
    25     1      1161.69000       179.99100       608.38500 
    26     1       771.92900       219.70100       609.26500 
    27     1       736.63300       262.86100       608.93700 
    28     1       297.25100       289.28100       609.98300 
    29     1       299.96100       293.57100       610.50400 
    30     1       740.15900       337.87100       611.06700 
    31     1       533.21100       331.25100       603.69300 
    32     1       245.19100       388.52100       608.57300 
    33     1       919.62100       449.26100       611.40900 
    34     1      1093.27000       460.98100       607.72900 
    35     1       840.08900       545.08100       605.26200 
    36     1       142.16100       543.98100       603.79500 
    37     1      1107.24000       576.44100       605.03200 
    38     1      1104.47000       588.08100       604.28100 
    39     1       723.08700       610.73300       619.34000 
    40     1       182.03100       712.42800       611.76600 
    41     1       910.82900       735.60100       614.77200 
    42     1       703.44000       751.51600       613.15000 
    43     1      1145.61000       748.82800       612.54900 
    44     1       224.32100       771.14700       617.31400 
    45     1       754.61000       782.42500       617.82300 
    46     1      1113.00000       783.37100       612.41300 
    47     1       395.14100       823.98000       616.83400 
    48     1       805.02600       834.95000       617.28500 
    49     1       788.41900       874.52500       611.64400 
    50     1      1098.45000       969.10400       615.86200 
    51     1       281.10100       967.85700       617.20800 
    52     1      1110.20000      1016.67000       617.87500 
    53     1      1079.57000      1187.38000       615.75500 
    54     1      1136.96000        50.09100       618.78300 
    55     1      1090.07000        56.77100       619.50300 
    56     1       363.98100        68.71100       613.84000 
    57     1        90.67100       134.80100       614.08500 
    58     1        88.97100       220.92100       615.39400 
    59     1      1196.14000       292.86100       616.09400 
    60     1       709.69600       312.96100       611.93900 
    61     1       431.74100       345.21100       616.59500 
    62     1        49.40100       379.55100       618.46300 
    63     1       669.89700       426.56100       615.12700 
    64     1       353.24100       538.24100       614.00900 
    65     1       829.63100       617.48900       621.86000 
    66     1       867.00400       659.67500       624.91400 
    67     1       130.08100       692.63500       624.91300 
    68     1       821.25200       775.16000       627.12700 
    69     1       910.32000       804.66400       620.10000 
    70     1       938.91700       880.44900       621.52100 
    71     1       501.86100       957.47200       626.98500 
    72     1       823.38300      1048.03000       623.49400 
    73     1       821.09300      1052.99000       620.39500 
    74     1       374.09100      1056.96000       626.23400 
    75     1      1108.36000      1073.68000       627.41300 
    76     1       195.62100      1100.94000       626.09300 
    77     1      1189.07000      1198.85000       620.16300 
    78     1       243.17100      1205.24000       621.20400 
    79     1      1086.35000         7.10100       626.55600 
    80     1        67.42100         9.58100       626.10200 
    81     1       663.66400        49.88100       620.12600 
    82     1       238.34100       100.38100       622.83200 
    83     1       472.78100       132.12100       622.31000 
    84     1       342.58100       263.28100       625.72100 
    85     1       994.31300       297.73100       620.18300 
    86     1      1052.37000       400.24100       623.55100 
    87     1       167.80100       436.96100       621.99300 
    88     1      1069.74000       443.04100       621.52300 
    89     1       427.21100       454.84100       621.35200 
    90     1       822.68800       474.66100       622.97700 
    91     1      1203.20000       482.85100       621.14800 
    92     1      1164.53000       533.50100       620.58400 
    93     1      1131.67000       545.80100       622.49500 
    94     1       449.80100       551.78100       620.90200 
    95     1       589.54100       596.05100       627.46900 
    96     1       940.37900       617.83500       631.90600 
    97     1        76.24100       678.67900       629.72800 
    98     1       117.82100       769.33600       633.84900 
    99     1       318.48100       769.56000       629.77300 
   100     1      1079.49000       792.16200       629.82300 
   101     1      1041.23000       830.73000       634.23000 
   102     1       432.95100       896.81900       631.17200 
   103     1       208.34100       963.34100       634.61800 
   104     1       491.51100       969.25000       633.36500 
   105     1      1039.51000      1000.23000       631.92300 
   106     1         0.93100      1003.05000       630.73800 
   107     1       880.16000      1015.68000       627.89600 
   108     1       108.24100      1027.71000       634.35900 
   109     1       447.59100      1061.15000       630.72700 
   110     1        85.64100      1072.05000       635.64800 
   111     1       364.30100      1143.06000       634.88900 
   112     1       397.10100      1152.51000       627.94800 
   113     1      1058.25000      1201.22000       629.14400 
   114     1       481.71100        11.83100       631.45200 
   115     1       374.62100        91.99100       628.55800 
   116     1      1083.29000       104.36100       630.50000 
   117     1       309.30100       115.14100       632.49400 
   118     1       408.80100       153.13100       632.32200 
   119     1       222.44100       208.15100       628.59400 
   120     1       201.98100       246.58100       634.44000 
   121     1       797.28600       256.53100       634.04500 
   122     1       622.70100       363.28100       635.38100 
   123     1       208.66100       381.06100       627.84500 
   124     1       858.12400       412.45100       630.27500 
   125     1      1161.90000       423.16100       633.38600 
   126     1      1107.20000       430.67100       633.69300 
   127     1        48.28100       443.86100       629.05100 
   128     1       432.21100       444.39100       628.56100 
   129     1       904.64800       452.65100       628.58000 
   130     1       355.71100       455.31100       631.03300 
   131     1       703.87200       463.73100       631.18000 
   132     1       129.46100       489.05100       634.09300 
   133     1       909.74800       497.38100       634.30700 
   134     1      1184.41000       491.02100       630.41400 
   135     1       727.93700       571.48100       632.19800 
   136     1       801.90400       574.43100       629.08600 
   137     1       988.44700       612.15700       640.31000 
   138     1       658.90900       673.12700       639.05800 
   139     1       921.73900       672.44100       641.71800 
   140     1        73.16100       721.84300       642.52800 
   141     1       674.90800       760.25400       636.21500 
   142     1      1161.71000       774.33600       643.12300 
   143     1       882.79000       789.99400       639.47800 
   144     1        57.65100       810.80700       637.15400 
   145     1      1078.76000       828.42000       636.34900 
   146     1        96.80100       896.78900       642.29300 
   147     1      1039.46000       924.97400       639.49900 
   148     1       422.71100      1002.62000       636.20900 
   149     1      1007.08000      1027.32000       637.30100 
   150     1        67.34100      1048.83000       641.61800 
   151     1       249.47100      1097.79000       638.76000 
   152     1       454.10100      1120.24000       639.01300 
   153     1       820.28100      1127.38000       640.11100 
   154     1       880.34300      1136.57000       639.16400 
   155     1      1067.66000      1174.81000       639.88100 
   156     1        68.17100      1190.09000       637.35900 
   157     1       403.75100      1199.42000       638.42600 
   158     1      1043.92000         8.73100       642.57300 
   159     1      1205.91000        16.73100       638.66100 
   160     1       762.22000        68.07100       641.82100 
   161     1       711.01300       111.03100       641.10700 
   162     1       190.01100       126.28100       640.82200 
   163     1       515.89100       199.96100       642.39900 
   164     1       152.16100       222.47100       643.34600 
   165     1       133.03100       292.64100       638.85700 
   166     1      1197.73000       313.35100       636.32500 
   167     1      1141.10000       348.52100       640.97500 
   168     1       140.78100       348.17100       641.04900 
   169     1       310.74100       362.65100       642.09100 
   170     1       138.04100       385.23100       639.66600 
   171     1       670.83200       388.06100       641.43200 
   172     1      1020.01000       406.68100       641.03600 
   173     1       772.01000       444.60100       638.41300 
   174     1       593.77100       463.82100       641.06300 
   175     1       503.30100       478.06100       643.50000 
   176     1       197.96100       483.04100       638.97900 
   177     1        84.36100       543.60100       642.97000 
   178     1       502.93100       539.16100       635.81100 
   179     1       413.97100       559.64100       640.73800 
   180     1       756.48600       572.77100       642.01700 
   181     1      1041.53000       592.11100       639.40700 
   182     1       889.88100       616.39700       650.84600 
   183     1       396.71100       611.77700       648.97800 
   184     1       617.92700       636.72500       649.96600 
   185     1        26.58100       671.28200       645.20400 
   186     1       556.39100       679.12800       643.85700 
   187     1       729.89900       710.15800       647.53500 
   188     1       357.30100       721.06100       651.51500 
   189     1      1117.26000       746.78900       650.59900 
   190     1       521.53100       756.17900       648.25000 
   191     1       794.42300       784.17700       651.11400 
   192     1       827.53200       806.20700       650.10300 
   193     1       962.05500       818.38800       645.71000 
   194     1        23.42100       819.64600       647.64300 
   195     1      1200.35000       823.61900       648.66900 
   196     1       285.88100       850.62800       649.44600 
   197     1       443.72100       861.20200       649.87100 
   198     1       536.64100       865.51100       645.33500 
   199     1       994.06200       886.10200       648.85800 
   200     1      1114.71000       886.13500       647.84700 
   201     1       802.74400       963.17500       644.05100 
   202     1      1129.51000       970.04300       649.55400 
   203     1       247.65100       976.32600       644.09100 
   204     1       965.08500      1088.56000       651.29400 
   205     1       683.19500      1099.77000       648.22300 
   206     1       828.83600      1101.03000       643.96500 
   207     1        11.95100      1105.03000       650.33100 
   208     1       183.01100      1107.79000       649.98200 
   209     1        84.54100      1152.92000       643.89100 
   210     1       761.77800      1189.10000       645.94500 
   211     1       913.59800        29.35100       646.73800 
   212     1       105.68100        83.35100       651.12700 
   213     1       863.86700       139.82100       649.62800 
   214     1       800.63700       189.03100       646.26300 
   215     1       182.66100       238.52100       651.72500 
   216     1       157.18100       248.48100       649.56500 
   217     1       653.50300       253.10100       647.06600 
   218     1      1144.60000       261.76100       646.96800 
   219     1       451.68100       295.80100       647.27200 
   220     1       518.67100       358.06100       649.13700 
   221     1       716.19500       401.59100       648.15000 
   222     1       469.94100       430.45100       646.34200 
   223     1       558.26100       437.64100       645.96400 
   224     1       992.27100       473.80100       644.13800 
   225     1       897.77700       515.07100       643.74200 
   226     1       344.99100       558.74100       648.33600 
   227     1        52.67100       597.37100       649.22700 
   228     1       344.14100       602.50100       650.13100 
   229     1        57.55100       606.29300       652.68000 
   230     1       226.90100       638.77000       658.97000 
   231     1      1125.94000       668.70400       652.34900 
   232     1       494.57100       694.18600       656.87000 
   233     1       463.80100       721.95300       656.39600 
   234     1       940.00400       757.34300       659.04900 
   235     1       632.21100       774.34400       654.53500 
   236     1      1194.24000       798.65400       658.53000 
   237     1        27.89100       823.08500       656.51000 
   238     1       511.39100       833.90000       651.95200 
   239     1       989.64800       841.35100       659.33500 
   240     1       957.20600       884.32800       658.91200 
   241     1        54.99100       878.42500       657.09900 
   242     1       901.31900       946.84300       652.53900 
   243     1       361.94100       954.78400       658.95000 
   244     1       841.10200       978.25700       654.62600 
   245     1       742.09800       985.96000       656.32000 
   246     1      1048.65000      1084.62000       654.46600 
   247     1       914.58400      1092.93000       656.58900 
   248     1       651.82800      1097.50000       658.37400 
   249     1       456.27100      1106.09000       652.67500 
   250     1      1140.20000      1155.49000       652.54000 
   251     1        44.30100      1176.02000       656.76800 
   252     1       990.76800      1193.01000       654.15700 
   253     1       789.26100        13.80100       652.19400 
   254     1      1182.68000         8.53100       657.00100 
   255     1       339.96100        27.46100       655.96800 
   256     1       394.16100        54.49100       657.09600 
   257     1       207.41100        69.60100       657.64500 
   258     1       753.98700       233.32100       657.54000 
   259     1       171.54100       233.51100       658.31900 
   260     1       580.06100       255.39100       654.06400 
   261     1       665.84300       434.49100       658.19100 
   262     1       772.93200       443.84100       658.27300 
   263     1       197.79100       476.97100       658.17900 
   264     1       371.05100       499.00100       652.73600 
   265     1       165.39100       516.92100       654.19100 
   266     1       386.51100       564.55100       657.48300 
   267     1       327.06100       577.17100       652.43500 
   268     1       268.85100       612.15000       660.99100 
   269     1       441.27100       637.57100       660.70900 
   270     1       618.00900       671.26800       661.04800 
   271     1      1189.05000       680.54600       665.38700 
   272     1       677.64200       732.40300       661.25200 
   273     1       586.11100       865.80700       661.97900 
   274     1       760.13200       890.00000       660.81000 
   275     1       669.05700       948.53600       659.96000 
   276     1       864.43700       955.49200       662.92000 
   277     1       773.24500       969.27100       663.62400 
   278     1       750.10700      1013.24000       665.78700 
   279     1        61.45100      1053.06000       663.72800 
   280     1       562.14100      1139.15000       660.50600 
   281     1       854.39100      1156.98000       662.21600 
   282     1      1072.78000        74.25100       667.39100 
   283     1        33.60100       118.21100       666.11200 
   284     1       678.82500       149.22100       666.92200 
   285     1       724.21200       189.30100       662.04900 
   286     1       672.27800       225.05100       665.23800 
   287     1      1079.85000       337.15100       661.77200 
   288     1       682.11500       356.51100       664.34700 
   289     1      1131.33000       386.86100       666.32900 
   290     1      1165.26000       403.73100       660.47600 
   291     1      1203.49000       412.02100       660.08700 
   292     1         3.19100       449.15100       661.10600 
   293     1       579.40100       528.19100       664.18700 
   294     1       409.95100       543.62100       667.22600 
   295     1       829.03400       562.20100       664.39300 
   296     1      1075.00000       600.51100       662.74100 
   297     1       459.72100       664.61600       674.35400 
   298     1       766.71800       746.83500       675.23700 
   299     1       823.29200       757.64900       670.73800 
   300     1       337.89100       771.95100       671.82200 
   301     1       794.06900       774.58700       668.70800 
   302     1       827.23900       838.46000       673.73100 
   303     1       176.25100       840.20400       668.61200 
   304     1      1011.58000       906.93100       675.08900 
   305     1       137.04100       927.82700       671.88600 
   306     1       242.81100       953.14700       674.11900 
   307     1       854.33300       994.57200       673.56300 
   308     1       209.46100      1041.68000       674.30000 
   309     1       642.68900      1076.96000       672.71200 
   310     1       132.72100      1098.36000       674.48300 
   311     1       859.67600      1105.82000       674.33400 
   312     1      1040.55000      1147.47000       668.55200 
   313     1      1203.99000      1162.62000       674.04800 
   314     1       882.78100      1181.12000       671.00100 
   315     1      1042.02000         3.38100       673.08000 
   316     1       310.46100        19.01100       671.82800 
   317     1       240.99100        41.79100       675.27000 
   318     1       132.70100        91.72100       674.76200 
   319     1       725.48300       151.35100       672.92400 
   320     1       357.94100       202.57100       670.38000 
   321     1       575.53100       212.60100       673.47400 
   322     1       765.39700       219.25100       673.43300 
   323     1       298.37100       239.96100       668.74300 
   324     1       334.75100       242.16100       673.55600 
   325     1       242.90100       262.13100       671.89700 
   326     1       712.80400       283.68100       674.43200 
   327     1      1165.66000       313.89100       669.94800 
   328     1      1189.62000       339.49100       673.27000 
   329     1       197.18100       394.50100       671.38600 
   330     1       706.93900       403.74100       670.09500 
   331     1        60.90100       435.40100       672.63400 
   332     1       828.60700       453.16100       670.10900 
   333     1       787.31700       514.49100       669.34000 
   334     1       497.00100       607.43000       678.97400 
   335     1       237.44100       618.10400       678.82800 
   336     1       860.40100       649.24300       677.44300 
   337     1       597.83100       646.90400       681.77900 
   338     1      1143.26000       677.40600       680.32000 
   339     1       118.60100       829.60300       677.79000 
   340     1       598.81100       852.11300       676.07200 
   341     1       865.70800       853.19600       677.64200 
   342     1       548.42100       915.25800       676.67500 
   343     1       623.91500       939.41300       682.69500 
   344     1       186.71100       979.59600       676.19800 
   345     1      1172.88000      1010.77000       680.97700 
   346     1       481.70100      1101.25000       679.31900 
   347     1       545.29100      1134.28000       677.64300 
   348     1       151.38100      1193.11000       682.41700 
   349     1       672.02400        67.83100       683.10000 
   350     1      1110.62000        82.66100       681.31100 
   351     1      1045.66000       173.22100       678.00300 
   352     1       886.22100       182.28100       679.27500 
   353     1       861.53500       229.63100       676.44700 
   354     1       909.16900       256.44100       676.65800 
   355     1       882.75600       268.00100       676.40200 
   356     1      1120.15000       289.99100       677.74300 
   357     1       263.49100       317.94100       677.47500 
   358     1       919.62900       367.50100       682.49000 
   359     1      1127.16000       405.24100       678.03600 
   360     1       550.74100       437.82100       681.51500 
   361     1      1174.20000       443.25100       677.39800 
   362     1       857.88100       468.38100       677.39100 
   363     1       182.02100       551.11100       683.57400 
   364     1       343.20100       563.40100       679.63800 
   365     1       883.55500       628.11600       686.83900 
   366     1        20.40100       639.40400       688.01900 
   367     1       967.88400       694.13500       687.00000 
   368     1       697.10900       714.13900       690.54600 
   369     1      1161.62000       730.78200       691.93200 
   370     1       311.90100       753.15100       686.99400 
   371     1       558.52100       753.68300       689.63500 
   372     1      1059.31000       787.07900       685.30000 
   373     1        76.37100       798.58500       685.02600 
   374     1       458.00100       815.94800       684.85200 
   375     1       105.68100      1042.31000       689.59900 
   376     1       189.24100      1046.94000       687.01500 
   377     1       697.88100      1070.37000       685.83900 
   378     1       278.37100      1076.24000       691.12600 
   379     1       766.61900      1097.88000       690.41900 
   380     1       984.34800      1103.87000       688.87200 
   381     1       594.46100      1141.77000       684.18700 
   382     1        14.35100      1149.29000       688.05400 
   383     1       152.63100      1166.70000       685.37000 
   384     1      1029.25000      1176.53000       685.43300 
   385     1      1053.34000      1180.56000       690.86400 
   386     1      1128.73000        37.93100       685.83800 
   387     1       499.20100        69.45100       686.10600 
   388     1      1090.22000       118.37100       689.29300 
   389     1       528.50100       210.96100       690.56200 
   390     1       162.71100       218.60100       688.01000 
   391     1       415.74100       322.81100       689.69600 
   392     1       481.18100       336.45100       691.17600 
   393     1       723.57900       338.56100       691.21100 
   394     1       992.22100       342.14100       691.57800 
   395     1      1162.18000       361.49100       690.63800 
   396     1       615.19500       382.21100       690.76600 
   397     1       583.43100       451.77100       691.38100 
   398     1       970.79700       470.39100       690.48800 
   399     1      1075.81000       486.29100       684.48800 
   400     1       755.59200       521.03100       687.36200 
   401     1       271.75100       546.51100       686.16400 
   402     1       128.77100       560.34100       690.53000 
   403     1       215.80100       581.07100       686.84600 
   404     1       123.15100       619.09400       694.05200 
   405     1       257.80100       616.72600       692.79400 
   406     1      1001.86000       684.26900       694.93000 
   407     1      1097.50000       754.40500       697.10400 
   408     1       625.06700       760.26600       695.52900 
   409     1      1024.93000       767.54400       692.91700 
   410     1       324.49100       829.25000       695.74100 
   411     1      1079.79000       995.02800       692.41300 
   412     1       471.88100      1021.25000       695.06600 
   413     1        21.46100      1028.14000       696.60700 
   414     1       427.78100      1038.40000       695.01400 
   415     1       658.68900      1082.32000       694.68700 
   416     1       368.56100      1168.66000       699.54400 
   417     1        62.66100        48.94100       698.80400 
   418     1       715.30100        78.09100       693.44800 
   419     1       318.63100       149.16100       699.17700 
   420     1        27.21100       169.76100       697.54600 
   421     1       502.66100       174.98100       694.45700 
   422     1       336.15100       366.60100       692.71100 
   423     1       341.35100       458.41100       694.22100 
   424     1       103.36100       484.14100       695.49100 
   425     1       703.00800       494.59100       696.09000 
   426     1      1151.38000       558.29100       695.37100 
   427     1       121.71100       590.21100       699.53300 
   428     1       467.71100       666.31500       702.20800 
   429     1       889.08700       718.48700       705.63200 
   430     1       416.27100       737.56100       706.96900 
   431     1      1023.88000       838.65800       700.63900 
   432     1       147.96100       947.66000       705.94600 
   433     1      1021.95000       955.83000       706.35000 
   434     1       361.20100       949.91200       700.70400 
   435     1       915.67500       965.67700       704.43800 
   436     1       454.45100      1062.05000       703.13800 
   437     1       184.88100      1149.47000       705.23700 
   438     1       958.52900      1155.98000       700.85000 
   439     1      1201.89000        29.49100       700.46500 
   440     1      1091.57000        40.92100       705.18200 
   441     1       609.31400       107.59100       705.38600 
   442     1       172.01100       144.97100       706.83600 
   443     1       266.96100       166.73100       700.09400 
   444     1       659.18500       174.84100       707.74500 
   445     1       688.77300       197.90100       707.99500 
   446     1       200.57100       198.47100       702.75800 
   447     1       515.17100       272.66100       701.38900 
   448     1      1029.83000       275.47100       704.96800 
   449     1       583.26100       278.92100       707.76500 
   450     1        21.24100       326.01100       700.72800 
   451     1       671.57800       344.21100       700.34500 
   452     1       661.04200       413.47100       706.30400 
   453     1       163.01100       443.68100       706.16900 
   454     1       974.85200       452.95100       703.91200 
   455     1       282.69100       468.19100       704.26200 
   456     1        30.83100       541.75100       702.80200 
   457     1       752.16400       558.77100       701.35200 
   458     1       657.70900       567.79100       704.77000 
   459     1       729.26200       587.10100       704.15200 
   460     1      1023.88000       624.97000       714.88500 
   461     1       518.04100       716.14700       710.60700 
   462     1       859.02500       955.97700       715.90900 
   463     1       667.25000       979.73100       709.33100 
   464     1       947.73800       979.39800       714.04000 
   465     1       581.53100      1052.96000       708.71900 
   466     1       193.53100      1144.01000       708.18000 
   467     1       528.16100      1180.17000       710.94800 
   468     1      1194.16000        12.56100       708.20500 
   469     1       620.84100        24.69100       709.64200 
   470     1       233.60100        24.46100       708.47900 
   471     1       452.47100        42.41100       714.88700 
   472     1       218.95100        69.19100       714.57900 