LAMMPS Description. time=0 
 
      10000  atoms 
          2  atom types 
 
        0.00000      1740.80100 xlo xhi 
        0.00000      1740.80100 ylo yhi 
        0.00000      1740.80100 zlo zhi 
 
Atoms 
 
     1     1      1571.99000      1106.77000       871.66600 
     2     1      1504.36000      1376.59000       877.32600 
     3     1      1037.70000      1420.63000       877.26700 
     4     1      1725.03000      1483.17000       876.98600 
     5     1       364.45900      1485.56000       878.34700 
     6     1       519.25900      1571.26000       873.07500 
     7     1       438.54900      1589.26000       876.43800 
     8     1       322.85900      1699.32000       872.77100 
     9     1       603.69900      1698.52000       872.11900 
    10     1       158.80900        50.75900       877.66500 
    11     1       443.11900       160.93900       875.82900 
    12     1      1456.63000       164.98900       871.01700 
    13     1      1411.07000       302.84900       871.14000 
    14     1       205.47900       304.19900       877.13200 
    15     1      1341.44000       409.26900       873.99600 
    16     1      1275.24000       638.81900       872.77700 
    17     1       934.53900       719.21900       877.40700 
    18     1       361.42900       774.26900       874.00100 
    19     1       553.70900       881.40000       886.21000 
    20     1      1074.52000       990.60800       881.99800 
    21     1       117.15900      1034.02000       884.16800 
    22     1      1012.65000      1105.00000       884.97800 
    23     1      1480.50000      1177.77000       878.96800 
    24     1       366.29900      1176.80000       883.39500 
    25     1      1678.40000      1285.49000       886.11300 
    26     1       432.79900      1296.59000       880.01700 
    27     1      1214.20000      1342.52000       886.23300 
    28     1       300.00900      1611.54000       881.07200 
    29     1       124.93900      1655.04000       886.31100 
    30     1      1074.55000      1667.62000       884.45200 
    31     1      1583.72000      1688.67000       881.73900 
    32     1        95.05900      1709.71000       885.82400 
    33     1      1480.52000         1.45900       885.96800 
    34     1       268.26900      1737.73000       885.02000 
    35     1      1487.09000        47.17900       883.41200 
    36     1      1164.53000        69.93900       885.80800 
    37     1      1710.29000       163.21900       883.98400 
    38     1      1167.59000       209.74900       883.05900 
    39     1       574.30900       375.09900       879.28100 
    40     1       933.30100       405.38900       878.90300 
    41     1       521.57900       412.48900       882.84500 
    42     1      1424.29000       546.79900       881.09100 
    43     1       534.99900       578.89900       886.28100 
    44     1       636.06900       604.44900       882.03900 
    45     1       173.87900       757.90900       882.64600 
    46     1       590.75900       927.74400       887.72400 
    47     1       873.89800       951.49200       894.17400 
    48     1       385.11900      1136.02000       887.01600 
    49     1       275.98900      1359.36000       886.88800 
    50     1      1643.22000      1363.97000       889.99300 
    51     1       843.30900      1424.74000       889.52700 
    52     1      1617.08000      1529.54000       889.59900 
    53     1       409.37900      1542.03000       890.59800 
    54     1      1235.32000      1547.63000       887.90900 
    55     1         6.57900      1569.64000       887.96400 
    56     1       980.36400      1608.50000       893.37900 
    57     1       648.42900      1619.10000       889.08600 
    58     1      1195.54000       155.85900       888.86400 
    59     1       233.92900       580.98900       888.60400 
    60     1      1207.82000       862.52900       893.64000 
    61     1       693.08900       939.51300       896.62000 
    62     1      1643.94000      1218.28000       897.47500 
    63     1      1148.04000      1497.78000       899.10100 
    64     1      1097.98000      1610.38000       895.84100 
    65     1       465.37900      1631.62000       899.38200 
    66     1      1647.08000      1674.38000       897.15800 
    67     1      1562.40000       135.48900       900.35200 
    68     1       737.36900       189.53900       901.20800 
    69     1      1240.44000       197.28900       899.33600 
    70     1       147.85900       295.96900       896.30600 
    71     1       358.75900       308.63900       899.82400 
    72     1       588.03900       372.33900       896.33300 
    73     1      1539.61000       434.69900       899.87600 
    74     1       220.66900       507.88900       894.59900 
    75     1       800.59900       586.05900       899.23800 
    76     1       803.68900       731.90900       899.00000 
    77     1      1234.18000      1031.53000       907.08400 
    78     1      1545.19000      1065.82000       910.43300 
    79     1       698.07900      1177.78000       909.18500 
    80     1        24.75900      1210.92000       904.90300 
    81     1       288.77900      1222.48000       905.81700 
    82     1       743.07900      1346.97000       904.63400 
    83     1       630.83900      1511.87000       903.24200 
    84     1       309.95900      1545.56000       907.23000 
    85     1      1001.19000      1615.68000       904.51700 
    86     1      1458.68000      1679.39000       910.01500 
    87     1       773.57900       231.95900       903.89400 
    88     1      1511.06000       241.60900       905.11500 
    89     1        35.24900       311.02900       908.93300 
    90     1       214.28900       319.58900       905.25700 
    91     1      1624.36000       442.86900       905.70000 
    92     1      1005.18000       501.12900       908.72200 
    93     1      1676.78000       525.20900       905.78900 
    94     1       463.66900       553.34900       902.79700 
    95     1      1351.30000       668.15900       903.30700 
    96     1       959.88400       768.93900       910.17300 
    97     1      1026.41000       802.41900       904.42200 
    98     1       590.32900      1059.25000       911.01600 
    99     1        14.70900      1071.72000       914.78300 
   100     1      1353.08000      1148.89000       918.37300 
   101     1      1280.08000      1257.15000       912.66900 
   102     1      1499.87000      1371.96000       915.84400 
   103     1      1106.81000      1393.86000       916.99200 
   104     1      1648.66000      1482.19000       916.42400 
   105     1      1127.24000      1558.71000       916.54000 
   106     1      1266.73000      1607.88000       913.70000 
   107     1       582.13900      1615.94000       915.63000 
   108     1      1435.95000        23.61900       915.09500 
   109     1       150.23900        76.00900       913.50400 
   110     1       303.36900        96.91900       911.47600 
   111     1       294.93900       128.07900       912.04700 
   112     1      1042.67000       133.48900       911.39300 
   113     1       555.93900       144.57900       916.34100 
   114     1       953.73800       162.53900       916.83100 
   115     1       444.60900       280.06900       917.28400 
   116     1        90.62900       401.00900       917.77400 
   117     1      1570.58000       499.63900       916.34100 
   118     1      1178.71000       557.12900       910.60400 
   119     1       686.31900       601.55900       916.35100 
   120     1       935.03000       682.45900       911.26200 
   121     1      1030.64000       734.58900       917.46000 
   122     1       115.50900       799.79900       910.51100 
   123     1       720.99900       802.46900       912.68800 
   124     1       267.81900      1001.08000       920.92300 
   125     1      1302.73000      1074.57000       922.06600 
   126     1       659.20900      1110.30000       919.01700 
   127     1      1510.11000      1117.46000       922.05700 
   128     1       212.33900      1123.58000       923.49500 
   129     1      1330.02000      1176.36000       919.82100 
   130     1       670.05900      1304.13000       923.99600 
   131     1       617.00900      1326.10000       925.78100 
   132     1      1351.44000      1360.62000       921.34600 
   133     1       760.49900      1390.41000       926.12100 
   134     1      1048.59000      1439.86000       924.15200 
   135     1      1544.84000      1479.86000       918.76300 
   136     1       803.39900      1620.79000       923.82200 
   137     1       450.13900      1732.96000       924.26700 
   138     1      1179.42000        77.32900       920.59500 
   139     1      1603.24000       151.18900       919.34300 
   140     1       927.91900       167.30900       918.69100 
   141     1       219.69900       189.24900       921.84000 
   142     1        26.36900       273.14900       926.05500 
   143     1      1246.32000       349.86900       921.23500 
   144     1       283.65900       369.96900       926.52600 
   145     1      1527.44000       429.41900       920.99200 
   146     1      1124.85000       621.73900       920.43700 
   147     1       400.83900       765.38900       921.78800 
   148     1      1311.32000       913.23500       930.73100 
   149     1        73.25900       976.50100       932.06700 
   150     1       784.14900      1026.06000       933.30400 
   151     1      1001.03000      1090.20000       930.76400 
   152     1      1336.96000      1097.53000       930.72000 
   153     1       146.04900      1275.15000       929.04600 
   154     1        98.44900      1289.93000       926.57200 
   155     1      1262.83000      1378.06000       932.68200 
   156     1       216.56900      1388.70000       928.50900 
   157     1       131.16900      1391.84000       927.37600 
   158     1      1697.85000      1402.48000       931.18300 
   159     1      1256.04000      1495.23000       927.26400 
   160     1       102.48900      1589.79000       929.99000 
   161     1      1735.80000      1665.87000       932.92200 
   162     1       442.02900        40.82900       932.58900 
   163     1        83.63900        81.97900       932.41500 
   164     1       201.95900       296.54900       932.79100 
   165     1       738.11900       356.15900       929.85600 
   166     1       992.55700       453.93900       927.66400 
   167     1       278.01900       468.02900       929.56100 
   168     1      1392.34000       542.04900       926.82800 
   169     1      1223.06000       571.25900       930.45500 
   170     1       923.82800       662.07900       928.26600 
   171     1      1542.13000       812.92900       934.17100 
   172     1       825.03900       854.27900       929.11300 
   173     1       933.56600       970.64000       941.56800 
   174     1       275.67900      1022.28000       942.54000 
   175     1       463.71900      1378.46000       940.23600 
   176     1       722.95900      1414.36000       935.52700 
   177     1      1552.05000      1547.46000       937.45800 
   178     1       718.61900      1581.27000       936.97500 
   179     1      1019.66000       110.55900       939.87400 
   180     1       116.46900       280.36900       941.16700 
   181     1       900.81900       570.99900       939.36500 
   182     1       414.79900       654.55900       939.68000 
   183     1       966.22400       749.46900       938.86000 
   184     1       998.89500       811.40900       940.04200 
   185     1       839.71900       815.33900       937.91200 
   186     1      1211.91000       825.89900       936.39600 
   187     1        53.30900       959.37100       950.17000 
   188     1       975.13500       977.79800       949.42600 
   189     1      1668.24000      1036.61000       944.72000 
   190     1      1451.44000      1170.26000       947.25400 
   191     1       618.52900      1205.98000       946.88800 
   192     1       547.54900      1277.22000       945.75000 
   193     1      1592.97000      1287.02000       948.17900 
   194     1       845.96900      1285.34000       949.09600 
   195     1      1108.64000      1502.62000       945.47000 
   196     1       830.07900      1685.82000       948.40400 
   197     1       316.79900        18.29900       950.42900 
   198     1      1054.09000        68.03900       949.58200 
   199     1       880.52600       114.68900       943.39500 
   200     1      1364.91000       116.10900       944.78000 
   201     1      1372.49000       120.01900       949.82600 
   202     1      1451.77000       201.17900       945.24900 
   203     1       333.57900       231.32900       949.31900 
   204     1       849.16900       393.26900       950.01200 
   205     1         2.36900       489.80900       949.26300 
   206     1      1733.29000       532.48900       946.80100 
   207     1        45.51900       710.93900       947.62100 
   208     1       761.28900       736.69900       949.09500 
   209     1        51.32900       763.19900       947.92400 
   210     1      1212.27000       824.95900       949.46900 
   211     1       722.95900       829.03900       950.04900 
   212     1        72.07900       892.95300       950.74400 
   213     1      1587.93000       906.08900       951.59000 
   214     1      1533.05000      1005.18000       950.79700 
   215     1      1275.49000      1019.26000       955.26300 
   216     1       832.33900      1078.44000       955.91400 
   217     1      1096.02000      1108.64000       951.69900 
   218     1       243.65900      1167.08000       951.21000 
   219     1       620.83900      1167.50000       952.82600 
   220     1      1233.70000      1335.42000       958.55900 
   221     1       210.86900      1330.79000       953.08100 
   222     1      1370.10000      1396.15000       952.71900 
   223     1      1643.52000      1453.72000       953.72600 
   224     1       331.02900      1453.32000       954.01700 
   225     1       987.58300      1585.56000       953.88900 
   226     1      1500.13000      1591.00000       958.08100 
   227     1       563.16900      1643.69000       955.92400 
   228     1        74.94900        19.18900       954.59100 
   229     1       902.60400        52.99900       957.90200 
   230     1       142.85900       103.00900       950.81200 
   231     1       342.16900       172.12900       952.38300 
   232     1       464.90900       239.35900       951.59900 
   233     1        19.18900       244.97900       952.21600 
   234     1      1010.07000       422.53900       958.16000 
   235     1      1431.91000       427.08900       956.29900 
   236     1      1362.18000       658.05900       954.39200 
   237     1      1029.75000       721.22900       950.64600 
   238     1      1048.74000       855.90900       953.98500 
   239     1      1610.12000       856.63900       952.77200 
   240     1        76.61900      1042.03000       962.87800 
   241     1       543.19900      1057.03000       963.29100 
   242     1       676.09900      1082.47000       964.19600 
   243     1       647.90900      1154.58000       965.98100 
   244     1       369.70900      1452.31000       958.95200 
   245     1      1722.62000      1535.41000       964.80900 
   246     1      1332.42000      1565.56000       959.72100 
   247     1       732.09900      1663.21000       960.25000 
   248     1       465.95900      1668.06000       961.20200 
   249     1       298.45900        76.21900       966.55500 
   250     1       807.03900        79.02900       959.15800 
   251     1      1249.25000       148.56900       959.73800 
   252     1       841.11900       226.62900       963.28200 
   253     1       811.45900       251.27900       959.35800 
   254     1       157.45900       358.85900       961.57400 
   255     1       425.81900       447.71900       961.33500 
   256     1       258.79900       455.03900       964.35600 
   257     1       634.09900       510.91900       959.19000 
   258     1       710.51900       565.38900       966.24400 
   259     1       943.81600       625.84900       964.60600 
   260     1      1629.06000       689.09900       963.11300 
   261     1       523.85900       753.34900       962.79000 
   262     1      1531.72000       957.49800       973.86500 
   263     1      1172.10000       964.97000       966.85300 
   264     1      1331.60000       968.12300       973.10600 
   265     1       809.97900      1093.78000       973.58000 
   266     1       784.13900      1165.39000       974.30000 
   267     1      1681.67000      1270.88000       971.90900 
   268     1      1420.24000      1307.71000       972.19000 
   269     1        64.38900      1513.83000       972.69300 
   270     1      1004.20000      1553.87000       971.20700 
   271     1      1546.29000      1605.81000       974.59500 
   272     1       159.91900       340.14900       974.07200 
   273     1        22.24900       422.67900       966.94200 
   274     1       751.76900       719.04900       971.70900 
   275     1       550.02900       732.00900       972.60700 
   276     1      1306.95000       783.97900       969.36900 
   277     1       617.45900       790.36900       967.66000 
   278     1        91.38900       821.66900       967.93500 
   279     1       537.00900       817.01900       968.46500 
   280     1       445.84900       877.93400       978.79700 
   281     1      1473.27000       881.94300       979.79200 
   282     1       351.24900       917.31200       977.72000 
   283     1      1029.07000       987.61700       975.71800 
   284     1      1100.98000      1122.31000       979.25800 
   285     1       430.43900      1159.91000       978.62000 
   286     1       412.49900      1316.71000       979.77100 
   287     1      1587.92000      1325.06000       974.88400 
   288     1      1498.73000      1510.66000       978.72900 
   289     1       314.44900      1563.78000       982.21700 
   290     1       754.08900      1666.02000       975.32000 
   291     1      1475.70000      1688.97000       981.05300 
   292     1       347.38900      1709.10000       980.16800 
   293     1       206.74900      1733.25000       981.57400 
   294     1       248.97900         6.27900       979.99800 
   295     1       306.75900        28.12900       975.59800 
   296     1       715.00900        80.23900       976.94300 
   297     1       370.85900       149.50900       977.49000 
   298     1      1162.40000       323.06900       974.87700 
   299     1       656.79900       461.17900       978.05700 
   300     1      1238.42000       488.88900       977.88600 
   301     1      1143.76000       504.54900       982.21900 
   302     1       269.10900       505.17900       979.50100 
   303     1       301.83900       566.25900       976.10900 
   304     1       836.22900       591.02900       980.67200 
   305     1       233.88900       620.65900       978.08900 
   306     1       409.54900       675.77900       981.99200 
   307     1       905.92700       801.50900       979.60500 
   308     1       372.75900       820.70900       977.18600 
   309     1       329.39900       923.91700       984.14500 
   310     1      1534.17000       944.65200       986.66800 
   311     1      1689.58000       971.69500       988.73200 
   312     1        96.77900       987.39400       989.87700 
   313     1        57.25900      1111.87000       985.60000 
   314     1      1337.08000      1310.62000       988.19100 
   315     1       122.83900      1363.65000       984.20400 
   316     1      1170.28000      1412.83000       983.14300 
   317     1      1062.77000      1444.66000       987.11000 
   318     1      1217.83000      1476.07000       984.42500 
   319     1       170.83900      1729.23000       989.51200 
   320     1       194.95900         1.40900       985.30300 
   321     1      1317.30000       189.51900       984.93500 
   322     1      1684.95000       241.00900       990.09200 
   323     1      1009.41000       261.67900       990.31100 
   324     1       270.08900       460.59900       984.87700 
   325     1       858.35900       542.61900       986.87300 
   326     1      1220.38000       615.01900       982.92200 
   327     1       553.15900       646.85900       987.95200 
   328     1       861.12900       702.57900       990.64100 
   329     1       670.96900       753.43900       983.63600 
   330     1      1535.35000       806.65900       984.78700 
   331     1       530.44900       921.40700       991.92200 
   332     1       813.11900      1001.97000       996.36600 
   333     1       906.82600      1068.28000       997.83800 
   334     1       672.34900      1192.96000       997.75800 
   335     1      1616.48000      1234.87000       995.12400 
   336     1       462.30900      1244.75000       992.25700 
   337     1       960.41900      1338.11000       992.43200 
   338     1       750.08900      1357.08000       993.52000 
   339     1       403.05900      1377.52000       997.86600 
   340     1      1547.80000      1458.68000       991.05900 
   341     1       453.86900      1632.20000       991.30800 
   342     1      1235.76000      1686.11000       997.77300 
   343     1      1407.65000        24.95900       993.06600 
   344     1      1502.20000       292.66900       995.76100 
   345     1      1491.19000       294.36900       992.44100 
   346     1       111.99900       297.63900       991.17400 
   347     1       595.42900       416.15900       992.81200 
   348     1       211.59900       481.85900       998.72400 
   349     1      1556.05000       584.61900       995.45900 
   350     1       251.52900       588.32900       995.66400 
   351     1       611.90900       585.50900       993.84900 
   352     1       662.92900       875.82500      1000.18000 
   353     1      1183.94000       923.94100      1000.77000 
   354     1      1206.64000       960.16600      1001.01000 
   355     1      1651.77000      1040.01000      1006.75000 
   356     1       385.79900      1127.80000      1004.03000 
   357     1       907.19100      1197.23000      1005.66000 
   358     1      1012.70000      1199.67000      1004.79000 
   359     1      1193.09000      1300.37000      1002.62000 
   360     1       461.20900      1321.28000      1006.47000 
   361     1       842.07900      1334.87000      1001.62000 
   362     1       295.62900      1443.40000      1001.34000 
   363     1       203.00900      1462.71000      1003.70000 
   364     1       908.08600      1524.13000      1001.73000 
   365     1       844.22900      1567.15000      1002.44000 
   366     1       497.64900      1609.50000      1000.25000 
   367     1       589.04900      1621.62000      1002.37000 
   368     1      1530.25000      1695.01000      1004.47000 
   369     1       667.98900       166.74900      1004.97000 
   370     1      1139.75000       226.22900      1006.16000 
   371     1       937.35800       339.96900       999.68500 
   372     1       820.39900       348.06900      1002.48000 
   373     1       353.06900       368.07900       999.60300 
   374     1      1289.95000       535.08900      1006.18000 
   375     1       312.34900       564.35900      1003.71000 
   376     1       548.84900       640.05900      1005.59000 
   377     1         1.38900       683.11900      1005.36000 
   378     1       119.54900       714.69900      1004.52000 
   379     1       166.40900       995.85600      1011.42000 
   380     1      1591.94000      1019.74000      1011.15000 
   381     1       987.37100      1076.64000      1010.15000 
   382     1      1022.47000      1252.34000      1008.47000 
   383     1         0.26900      1253.96000      1010.59000 
   384     1       401.87900      1255.78000      1013.12000 
   385     1       122.03900      1396.78000      1009.55000 
   386     1       410.68900      1397.85000      1011.59000 
   387     1        62.57900      1459.35000      1010.31000 
   388     1      1314.16000      1472.83000      1011.47000 
   389     1       514.42900      1504.87000      1008.14000 
   390     1       468.50900      1534.39000      1007.19000 
   391     1       676.08900      1584.77000      1010.97000 
   392     1       319.89900      1605.01000      1010.86000 
   393     1      1042.92000      1645.51000      1008.70000 
   394     1      1721.98000        83.31900      1010.77000 
   395     1        47.85900       196.17900      1014.20000 
   396     1       675.98900       224.45900      1009.07000 
   397     1        89.49900       298.17900      1014.22000 
   398     1       584.94900       296.62900      1007.19000 
   399     1       903.54100       302.01900      1007.20000 
   400     1       144.88900       338.41900      1009.89000 
   401     1      1608.19000       368.67900      1008.12000 
   402     1      1038.00000       410.61900      1010.80000 
   403     1      1012.75000       600.83900      1012.42000 
   404     1         2.83900       809.51900      1009.60000 
   405     1      1712.54000       864.48900      1009.96000 
   406     1      1198.18000       983.32600      1020.13000 
   407     1      1219.97000       988.76600      1022.05000 
   408     1      1000.10000      1029.87000      1016.54000 
   409     1      1439.82000      1069.26000      1017.70000 
   410     1      1141.79000      1198.90000      1019.28000 
   411     1      1378.16000      1360.36000      1021.40000 
   412     1       910.50100      1368.04000      1016.19000 
   413     1       467.20900      1378.19000      1021.15000 
   414     1       286.09900      1511.25000      1018.85000 
   415     1      1032.35000      1687.12000      1016.91000 
   416     1      1390.36000      1720.29000      1018.98000 
   417     1      1732.40000      1735.13000      1021.55000 
   418     1       927.09400        69.59900      1018.32000 
   419     1      1264.44000       114.99900      1015.24000 
   420     1       900.83800       173.02900      1014.97000 
   421     1      1288.91000       174.70900      1022.26000 
   422     1      1263.26000       197.13900      1020.64000 
   423     1      1461.01000       202.60900      1017.34000 
   424     1       168.07900       300.63900      1015.18000 
   425     1       524.99900       327.37900      1017.99000 
   426     1       716.71900       383.17900      1020.66000 
   427     1      1096.03000       567.09900      1022.26000 
   428     1       814.03900       588.28900      1018.00000 
   429     1       907.44200       634.76900      1017.54000 
   430     1      1207.42000       712.49900      1019.64000 
   431     1       725.85900       782.08900      1018.92000 
   432     1      1595.11000       912.75800      1024.77000 
   433     1       719.10900       911.39900      1030.09000 
   434     1      1588.32000      1077.23000      1025.14000 
   435     1      1174.35000      1102.14000      1027.68000 
   436     1      1215.05000      1149.93000      1030.18000 
   437     1       492.42900      1159.84000      1029.86000 
   438     1      1463.46000      1411.53000      1028.79000 
   439     1       913.64400      1665.57000      1024.41000 
   440     1      1077.72000        74.56900      1023.55000 
   441     1       697.17900       303.79900      1029.42000 
   442     1       535.96900       420.50900      1023.68000 
   443     1       620.10900       602.63900      1027.25000 
   444     1      1274.34000       756.60900      1024.80000 
   445     1      1483.08000       857.50900      1026.96000 
   446     1      1141.67000      1176.75000      1036.24000 
   447     1       210.02900      1437.57000      1038.17000 
   448     1       964.88400      1594.15000      1030.99000 
   449     1        95.36900      1613.57000      1037.76000 
   450     1      1496.15000        78.87900      1032.70000 
   451     1       622.08900       110.04900      1036.62000 
   452     1      1009.98000       124.85900      1035.63000 
   453     1       539.59900       278.56900      1038.61000 
   454     1       803.64900       295.83900      1037.29000 
   455     1       646.11900       310.00900      1033.88000 
   456     1      1490.10000       330.01900      1034.37000 
   457     1       192.07900       396.28900      1038.16000 
   458     1        71.58900       479.63900      1035.86000 
   459     1       825.58900       830.68900      1037.74000 
   460     1      1689.90000      1053.83000      1045.02000 
   461     1       549.14900      1053.81000      1042.95000 
   462     1      1704.48000      1108.51000      1039.30000 
   463     1      1252.56000      1134.88000      1043.91000 
   464     1       717.97900      1324.33000      1039.85000 
   465     1      1660.19000      1387.10000      1043.09000 
   466     1       421.07900      1396.43000      1040.42000 
   467     1       600.92900      1424.66000      1040.39000 
   468     1       318.48900      1549.90000      1046.69000 
   469     1       310.81900      1581.68000      1046.80000 
   470     1      1687.03000      1626.53000      1039.56000 
   471     1       674.77900      1725.49000      1039.05000 
   472     1       541.28900         6.39900      1046.20000 